ITEM: TIMESTEP
100000
ITEM: NUMBER OF ATOMS
2048
ITEM: BOX BOUNDS pp pp pp
0.0000000000000000e+00 1.1950412657485773e+01
0.0000000000000000e+00 1.1950412657485773e+01
0.0000000000000000e+00 1.1950412657485773e+01
ITEM: ATOMS id type xs ys zs
1285 1 0.122237 0.493987 0.245849
634 1 0.802 0.455192 0.492523
26 1 0.825847 0.0587767 0.00269839
1170 1 0.505519 0.497586 0.136346
24 1 0.635792 0.0677536 0.0512537
82 1 0.506051 0.242839 0.00311339
991 1 0.994403 0.252681 0.00532215
1043 1 0.559815 0.496127 0.0663026
554 1 0.305893 0.187722 0.500273
267 1 0.375148 0.0100257 0.243475
51 1 0.57157 0.115024 0.0588379
291 1 0.943604 0.0597539 0.495704
1293 1 0.374322 0.49282 0.260592
63 1 0.943262 0.124174 0.0671072
41 1 0.25639 0.134482 0.0124375
30 1 0.940875 0.0634454 0.00662432
40 1 0.109706 0.182 0.0690575
1305 1 0.75207 0.496637 0.256485
56 1 0.622584 0.18226 0.0630964
1299 1 0.5617 0.499685 0.29817
55 1 0.741387 0.126708 -0.00133223
13 1 0.366546 0.00207809 0.00131471
2 1 0.0728877 0.0586155 0.00427084
77 1 0.38323 0.232523 0.00180922
131 1 0.0560345 0.00399673 0.193673
147 1 0.563823 0.00394564 0.182624
94 1 0.926463 0.305317 0.0120805
391 1 0.203875 0.00321073 0.4432
545 1 0.994881 0.149095 0.49898
115 1 0.552713 0.374156 0.0573961
1281 1 0.0054162 0.500217 0.239332
1289 1 0.190293 0.491982 0.186526
1025 1 0.00906268 0.42734 0.0701466
104 1 0.12324 0.433089 0.0471702
637 1 0.881355 0.380416 0.496651
143 1 0.437216 0.00335954 0.190228
12 1 0.246376 0.0637123 0.0592882
393 1 0.183025 0.00461846 0.314211
32 1 0.880793 0.0614517 0.0700751
4 1 0.012818 0.0570026 0.0617764
8 1 0.117833 0.0598888 0.0743646
16 1 0.389789 0.056969 0.0595099
47 1 0.447447 0.118245 0.0573651
20 1 0.508233 0.0597965 0.0557495
28 1 0.759948 0.0640584 0.0583121
158 1 0.94324 0.0584581 0.122833
35 1 0.0588037 0.117354 0.0738473
39 1 0.182112 0.137713 0.0562505
43 1 0.315622 0.134255 0.0707323
183 1 0.689132 0.124176 0.0604227
59 1 0.827791 0.127211 0.0761285
44 1 0.242669 0.189064 0.0688394
45 1 0.391849 0.176385 0.0616327
52 1 0.515233 0.175815 0.0642745
60 1 0.748059 0.183698 0.071408
64 1 0.874234 0.202149 0.0600377
36 1 0.997076 0.186664 0.0717263
67 1 0.0592909 0.257596 0.0572331
71 1 0.19278 0.249855 0.0670855
48 1 0.332237 0.249966 0.0640759
79 1 0.428734 0.253594 0.0710788
83 1 0.56607 0.249811 0.0655696
87 1 0.688031 0.234973 0.0673684
217 1 0.743546 0.254948 0.120587
91 1 0.808182 0.250502 0.0640401
95 1 0.942984 0.243325 0.0722347
72 1 0.136294 0.310828 0.0648758
76 1 0.245457 0.313237 0.0687754
80 1 0.377562 0.31567 0.0610205
84 1 0.503301 0.303832 0.0657869
88 1 0.625987 0.305723 0.0634338
92 1 0.743998 0.306466 0.0570269
96 1 0.855432 0.328452 0.0696689
68 1 0.992294 0.310968 0.0713606
100 1 0.0669446 0.368354 0.0611705
198 1 0.195541 0.372302 0.0606834
107 1 0.32147 0.375491 0.0647036
111 1 0.441795 0.363185 0.0560634
119 1 0.679125 0.365259 0.0653868
123 1 0.791402 0.37902 0.0517127
127 1 0.9389 0.383245 0.0564225
108 1 0.251057 0.437147 0.0634486
112 1 0.382816 0.439739 0.0539999
1169 1 0.503095 0.433499 0.0617439
120 1 0.608038 0.430524 0.0666589
124 1 0.739413 0.440318 0.068819
151 1 0.691975 -5.63594e-05 0.182597
625 1 0.497098 0.373263 0.496461
139 1 0.25571 0.00475453 0.252311
409 1 0.757494 0.00805508 0.387068
285 1 0.865293 0.00226885 0.250843
128 1 0.866122 0.434064 0.0544764
145 1 0.50774 0.0100594 0.118331
146 1 0.564464 0.0703598 0.125575
130 1 0.0603944 0.05982 0.136484
134 1 0.179599 0.063088 0.133388
138 1 0.313242 0.0552679 0.122279
142 1 0.439501 0.0635281 0.129344
150 1 0.693973 0.0541186 0.128933
154 1 0.818448 0.0616098 0.119719
161 1 0.994773 0.120984 0.128618
165 1 0.126313 0.131381 0.133949
169 1 0.255117 0.128491 0.123019
173 1 0.385026 0.121772 0.119756
177 1 0.494664 0.122435 0.123805
181 1 0.62996 0.112535 0.126275
185 1 0.751761 0.114416 0.122738
189 1 0.886076 0.117676 0.126549
162 1 0.0670819 0.186674 0.144351
166 1 0.19567 0.201471 0.13132
170 1 0.325824 0.194479 0.124398
174 1 0.447686 0.184553 0.120996
178 1 0.570863 0.170934 0.122435
182 1 0.687913 0.175006 0.126415
186 1 0.81379 0.198393 0.127319
190 1 0.939665 0.181686 0.127383
193 1 0.00573266 0.243466 0.131732
197 1 0.126329 0.249478 0.116266
75 1 0.260025 0.249648 0.128896
205 1 0.380786 0.252272 0.138899
209 1 0.50871 0.251136 0.127786
213 1 0.626528 0.245285 0.120491
221 1 0.871439 0.258926 0.131511
194 1 0.0714181 0.316872 0.132923
99 1 0.193524 0.302298 0.133513
202 1 0.316549 0.310187 0.130229
206 1 0.438815 0.312429 0.131049
210 1 0.564589 0.317121 0.128667
214 1 0.685528 0.313236 0.127572
218 1 0.806297 0.318378 0.12839
222 1 0.928481 0.308629 0.125163
225 1 0.999974 0.37473 0.127725
101 1 0.1328 0.374067 0.135936
233 1 0.250474 0.376877 0.122046
237 1 0.379526 0.376386 0.126305
241 1 0.501142 0.365174 0.135371
245 1 0.626405 0.375463 0.128207
249 1 0.749083 0.37836 0.130653
253 1 0.87905 0.378132 0.129131
230 1 0.200775 0.438586 0.128486
234 1 0.31648 0.438026 0.115017
238 1 0.438377 0.434479 0.122893
242 1 0.554797 0.441107 0.125553
246 1 0.690844 0.431761 0.134877
250 1 0.80205 0.437644 0.129336
226 1 0.0656016 0.428187 0.131403
240 1 0.372435 0.437234 0.191593
415 1 0.93549 0.0046735 0.42899
436 1 0.500302 0.252275 0.490736
228 1 0.928815 0.43854 0.113712
1311 1 0.947943 0.499115 0.309312
136 1 0.123754 0.0634267 0.188649
159 1 0.00373909 -0.00128537 0.253239
144 1 0.370961 0.0629992 0.176587
530 1 0.572906 0.0630571 0.49744
58 1 0.807253 0.173258 0.00344708
160 1 0.88292 0.0578133 0.191859
140 1 0.250702 0.0598996 0.192381
148 1 0.496807 0.0658408 0.182971
152 1 0.623378 0.0630764 0.190843
156 1 0.755836 0.0601884 0.187244
132 1 0.998059 0.0624622 0.193111
163 1 0.0579532 0.126101 0.194888
167 1 0.196243 0.125235 0.18265
171 1 0.320785 0.123695 0.1947
175 1 0.428682 0.119759 0.201463
179 1 0.556518 0.123536 0.192515
313 1 0.685017 0.125004 0.189667
187 1 0.810899 0.124486 0.179483
191 1 0.93355 0.129606 0.209274
164 1 0.00102348 0.201281 0.199828
168 1 0.13282 0.189081 0.185566
172 1 0.257439 0.190205 0.189133
176 1 0.379471 0.185228 0.183072
180 1 0.503956 0.183133 0.189785
184 1 0.624851 0.190019 0.198753
188 1 0.752092 0.184291 0.172257
192 1 0.875134 0.177069 0.180676
195 1 0.052469 0.26158 0.195606
199 1 0.196756 0.248988 0.19776
203 1 0.318043 0.246063 0.187484
207 1 0.442723 0.248172 0.197957
211 1 0.573688 0.247705 0.194448
215 1 0.677306 0.252563 0.191188
219 1 0.802314 0.250947 0.197634
223 1 0.93051 0.241274 0.184006
200 1 0.13336 0.313826 0.192262
204 1 0.261277 0.305609 0.19249
208 1 0.373561 0.305202 0.200361
212 1 0.504357 0.303813 0.187628
216 1 0.630783 0.31778 0.191565
220 1 0.742903 0.3121 0.189003
224 1 0.868881 0.311654 0.193954
196 1 -0.00018668 0.321537 0.202948
229 1 0.0698039 0.374114 0.187906
231 1 0.191764 0.374186 0.186471
235 1 0.307548 0.373624 0.194942
239 1 0.434821 0.366594 0.191761
243 1 0.573727 0.375076 0.191914
247 1 0.689191 0.370636 0.187612
251 1 0.807032 0.379502 0.191677
354 1 0.00445895 0.429697 0.193538
232 1 0.126637 0.44138 0.184065
236 1 0.255412 0.440165 0.194158
244 1 0.507087 0.428547 0.203891
256 1 0.874139 0.445045 0.186408
353 1 0.942004 0.37683 0.187684
248 1 0.628319 0.436196 0.192636
252 1 0.750122 0.437364 0.201271
70 1 0.19262 0.312409 0.00112005
413 1 0.868929 0.00772025 0.382026
1411 1 0.0641952 0.494854 0.442892
273 1 0.492482 0.00658206 0.252826
387 1 0.058694 0.00324234 0.440573
512 1 0.8579 0.452541 0.434801
261 1 0.0600907 0.0661628 0.251561
262 1 0.181239 0.07194 0.24896
266 1 0.313881 0.0642909 0.251326
270 1 0.436099 0.0626495 0.261951
274 1 0.565833 0.0656545 0.25089
278 1 0.684199 0.0667939 0.246217
314 1 0.752183 0.120151 0.237411
282 1 0.810742 0.0572288 0.250171
286 1 0.926915 0.0591928 0.257669
289 1 0.00151743 0.134331 0.255855
293 1 0.12694 0.133316 0.246566
297 1 0.253119 0.128478 0.250077
301 1 0.384762 0.129403 0.268072
305 1 0.492592 0.119976 0.254982
309 1 0.619358 0.120648 0.249601
317 1 0.860779 0.1257 0.24695
290 1 0.0686503 0.190311 0.257721
294 1 0.187847 0.191309 0.258437
298 1 0.328608 0.183108 0.258624
302 1 0.441446 0.187298 0.268704
306 1 0.559904 0.186533 0.255731
310 1 0.690994 0.190488 0.252407
352 1 0.803779 0.182822 0.244962
349 1 0.940717 0.194905 0.252785
318 1 0.994196 0.256837 0.257193
325 1 0.12761 0.251168 0.25384
201 1 0.253126 0.232902 0.260138
333 1 0.375097 0.251556 0.26008
337 1 0.501376 0.249478 0.256636
341 1 0.631364 0.24513 0.262872
345 1 0.741021 0.254238 0.254384
350 1 0.86858 0.251197 0.251168
322 1 0.0554438 0.33068 0.257299
326 1 0.192026 0.312418 0.248735
330 1 0.315048 0.310986 0.261869
334 1 0.440626 0.306977 0.254766
338 1 0.572317 0.308372 0.2512
342 1 0.686861 0.313502 0.260193
346 1 0.807278 0.31718 0.248739
321 1 0.936113 0.315663 0.247623
382 1 0.987804 0.380134 0.266057
357 1 0.131067 0.374919 0.245558
361 1 0.241542 0.379645 0.248469
365 1 0.367541 0.372364 0.251585
369 1 0.4971 0.373711 0.25703
373 1 0.624715 0.372345 0.258657
377 1 0.75095 0.374069 0.257716
255 1 0.874827 0.378534 0.244664
227 1 0.0635851 0.431657 0.250243
358 1 0.190591 0.440489 0.259392
362 1 0.310418 0.441258 0.258459
366 1 0.432373 0.427556 0.251395
370 1 0.566567 0.430646 0.252188
378 1 0.815664 0.44746 0.247054
384 1 0.939501 0.444509 0.238336
1153 1 0.000420852 0.496277 0.00756903
1179 1 0.693408 0.493038 0.193226
374 1 0.687977 0.430613 0.2493
135 1 0.185664 0.00888724 0.196126
399 1 0.445198 0.00367458 0.445498
264 1 0.123389 0.0638634 0.308663
633 1 0.744554 0.375927 0.500008
1049 1 0.734534 0.484163 -0.00175894
944 1 0.36932 0.122383 0.00344775
268 1 0.250651 0.058253 0.316924
272 1 0.374887 0.0558135 0.317685
276 1 0.501657 0.0657403 0.310886
280 1 0.630634 0.0639634 0.311779
284 1 0.753244 0.0708479 0.303239
288 1 0.867516 0.0605088 0.308738
258 1 0.0626075 0.125722 0.317125
295 1 0.183398 0.13607 0.320372
299 1 0.320476 0.11705 0.327887
303 1 0.445043 0.125655 0.321722
307 1 0.563592 0.119978 0.309489
311 1 0.685774 0.123761 0.302765
315 1 0.823974 0.129206 0.317935
292 1 0.93119 0.119934 0.31595
296 1 0.113421 0.194767 0.323148
300 1 0.263509 0.179649 0.319514
304 1 0.37151 0.195302 0.329204
308 1 0.505631 0.186561 0.318744
312 1 0.627235 0.189858 0.319076
316 1 0.751546 0.172194 0.305279
320 1 0.871899 0.18918 0.302484
449 1 0.00300342 0.197012 0.312792
323 1 0.0603136 0.256669 0.308676
327 1 0.185581 0.261847 0.310872
329 1 0.313222 0.250907 0.311544
335 1 0.436727 0.24762 0.319272
339 1 0.562833 0.242215 0.315621
343 1 0.689126 0.244447 0.322049
347 1 0.81576 0.248187 0.310861
351 1 0.932678 0.261369 0.309358
383 1 0.987768 0.316578 0.320316
328 1 0.115549 0.313532 0.322442
332 1 0.250194 0.313007 0.305378
336 1 0.375025 0.312551 0.320399
340 1 0.505622 0.309825 0.305642
344 1 0.631798 0.306008 0.316355
348 1 0.759548 0.321953 0.318554
474 1 0.864999 0.312461 0.306662
355 1 0.0641666 0.377496 0.319466
359 1 0.182211 0.376625 0.316048
363 1 0.310915 0.374994 0.31244
367 1 0.442397 0.362616 0.313916
371 1 0.571221 0.361083 0.315699
375 1 0.695158 0.369649 0.31682
379 1 0.819561 0.383968 0.31063
478 1 0.92551 0.367191 0.312616
356 1 0.00271114 0.4425 0.314282
364 1 0.243283 0.431236 0.318223
372 1 0.496864 0.443982 0.308725
380 1 0.74916 0.430388 0.320465
381 1 0.876364 0.442005 0.298673
360 1 0.123476 0.436052 0.309129
368 1 0.369747 0.430163 0.313294
376 1 0.624272 0.422751 0.320227
606 1 0.944824 0.316866 0.492874
1301 1 0.633733 0.497964 0.252018
519 1 0.0458269 0.068667 0.495154
394 1 0.31875 0.0589873 0.386756
398 1 0.438874 0.0626335 0.375297
1031 1 0.199036 0.498919 0.0631009
410 1 0.813136 0.0772366 0.387444
1035 1 0.306237 0.497573 0.0553946
260 1 0.999067 0.0658728 0.299627
259 1 0.0625814 0.0733561 0.37505
390 1 0.201034 0.0584476 0.378922
319 1 0.935913 0.0651101 0.371155
421 1 0.118107 0.132336 0.375218
425 1 0.25695 0.12746 0.39332
429 1 0.38025 0.133786 0.384696
433 1 0.508763 0.125478 0.380852
437 1 0.620209 0.121392 0.367329
441 1 0.745355 0.119944 0.374673
445 1 0.874942 0.136493 0.378004
388 1 0.996635 0.130752 0.367693
418 1 0.0560498 0.189273 0.377525
422 1 0.193848 0.195826 0.378339
426 1 0.310153 0.1906 0.391221
430 1 0.437937 0.189747 0.382279
434 1 0.567355 0.184217 0.373765
438 1 0.687653 0.174432 0.375858
442 1 0.815561 0.194326 0.382402
446 1 0.941183 0.192141 0.362086
386 1 0.991456 0.257116 0.368574
453 1 0.133801 0.253821 0.376093
457 1 0.24376 0.263468 0.380632
331 1 0.358372 0.25429 0.383701
461 1 0.504036 0.248339 0.376715
469 1 0.628991 0.238656 0.379295
473 1 0.749534 0.252518 0.38041
477 1 0.876938 0.245732 0.371642
450 1 0.0545605 0.312666 0.375938
454 1 0.185223 0.319179 0.374198
458 1 0.307322 0.316294 0.369758
462 1 0.432077 0.308824 0.374102
466 1 0.564679 0.299162 0.375566
470 1 0.697706 0.315047 0.374825
324 1 0.927937 0.314103 0.378005
481 1 0.99943 0.379202 0.374043
485 1 0.124668 0.374282 0.3823
489 1 0.245901 0.376399 0.378382
493 1 0.368877 0.371664 0.376623
497 1 0.503477 0.37301 0.372894
501 1 0.619355 0.368758 0.381529
476 1 0.761146 0.37478 0.382748
509 1 0.88135 0.385052 0.384577
482 1 0.0563055 0.445058 0.379684
490 1 0.310337 0.434045 0.367354
494 1 0.435633 0.433887 0.362257
498 1 0.55941 0.442109 0.364647
502 1 0.679127 0.437217 0.381705
506 1 0.807699 0.444043 0.374637
1553 1 0.497418 0.492485 0.489475
486 1 0.186055 0.433533 0.372231
257 1 0.0614652 0.00173043 0.319012
1053 1 0.868141 0.497646 0.00292447
19 1 0.57959 0.00617493 0.0650289
141 1 0.37512 0.00627708 0.1239
510 1 0.938713 0.432418 0.36437
432 1 0.383499 0.0570415 0.439361
1041 1 0.503741 0.495874 0.00805849
392 1 0.133105 0.0704475 0.432618
396 1 0.254611 0.0642872 0.438937
402 1 0.572415 0.0577446 0.366544
406 1 0.686742 0.0609477 0.367381
514 1 0.993388 0.0653035 0.431724
419 1 0.0482958 0.130618 0.439165
427 1 0.322128 0.121271 0.440642
431 1 0.438432 0.119711 0.442898
561 1 0.570206 0.12194 0.440368
412 1 0.706629 0.131126 0.441481
447 1 0.937922 0.131762 0.439179
424 1 0.131332 0.192768 0.440304
428 1 0.249503 0.194875 0.442027
589 1 0.369828 0.206985 0.4519
435 1 0.502503 0.184363 0.440581
440 1 0.62833 0.179544 0.439367
448 1 0.879014 0.186848 0.443872
451 1 0.0728455 0.247067 0.42904
455 1 0.185034 0.256732 0.441414
459 1 0.300249 0.25876 0.437809
463 1 0.434757 0.260793 0.435799
465 1 0.574236 0.245141 0.434389
467 1 0.69415 0.253559 0.435675
479 1 0.931642 0.254183 0.434466
452 1 0.996694 0.310094 0.430786
581 1 0.117633 0.31239 0.444647
460 1 0.24655 0.320577 0.438985
464 1 0.361225 0.312658 0.441793
472 1 0.634304 0.309151 0.436226
598 1 0.752144 0.314522 0.447363
471 1 0.814643 0.309253 0.373852
480 1 0.866339 0.325234 0.443078
456 1 0.0556661 0.37148 0.435461
487 1 0.180755 0.37467 0.445924
491 1 0.303663 0.38363 0.443568
495 1 0.436359 0.37828 0.426898
499 1 0.557942 0.379119 0.443083
503 1 0.691516 0.370782 0.436372
484 1 0.00323769 0.440745 0.442367
492 1 0.24017 0.43872 0.448429
496 1 0.368903 0.435502 0.438544
500 1 0.496986 0.434326 0.434515
504 1 0.620778 0.433535 0.448285
505 1 0.746445 0.447679 0.432121
488 1 0.128017 0.43491 0.438702
597 1 0.628684 0.251346 0.49391
511 1 0.947395 0.378094 0.437089
404 1 0.498198 0.0667668 0.440139
408 1 0.636327 0.0707356 0.429973
34 1 0.0519997 0.185192 0.00925252
550 1 0.190503 0.188177 0.495841
417 1 0.943496 0.00289295 0.312488
407 1 0.759139 0.0666184 0.45208
416 1 0.877258 0.0695722 0.434212
14 1 0.444753 0.0479627 0.00160686
423 1 0.186076 0.127969 0.440263
605 1 0.876465 0.260253 0.494366
283 1 0.803795 0.00430434 0.316265
443 1 0.817732 0.137327 0.443865
420 1 0.996145 0.203368 0.433313
389 1 0.131836 0.0057335 0.379101
263 1 0.118222 0.00371418 0.249125
1429 1 0.625414 0.495682 0.372935
444 1 0.758297 0.194774 0.438091
1413 1 0.119966 0.488421 0.381561
522 1 0.320138 0.0577869 0.496834
1303 1 0.68346 0.480688 0.312374
1157 1 0.131875 0.486449 0.118902
1011 1 0.564423 0.306584 0.00868747
475 1 0.811629 0.258651 0.441279
507 1 0.815189 0.382273 0.445548
1297 1 0.50241 0.49987 0.245439
1419 1 0.309707 0.497482 0.445964
468 1 0.494811 0.316235 0.432523
401 1 0.502922 0.00412197 0.376064
10 1 0.306573 0.0620621 0.00100276
566 1 0.692148 0.197051 0.492199
594 1 0.563517 0.305363 0.493472
1287 1 0.194169 0.497346 0.321742
1431 1 0.681607 0.494053 0.439331
103 1 0.195381 0.434644 0.00575143
118 1 0.667183 0.44134 0.00770873
49 1 0.510856 0.121029 0.0023072
518 1 0.18315 0.0666219 0.495737
78 1 0.442332 0.293289 0.00318264
1423 1 0.427509 0.494146 0.439058
109 1 0.373811 0.368099 0.00142863
1415 1 0.182811 0.495609 0.43106
279 1 0.697127 0.005841 0.29737
629 1 0.629064 0.363518 0.493474
269 1 0.312073 0.00391606 0.182521
1417 1 0.252281 0.491902 0.379549
62 1 0.931999 0.194694 0.00112111
1051 1 0.81246 0.490833 0.0730436
549 1 0.114345 0.132829 0.490871
117 1 0.619109 0.36819 0.0131032
385 1 0.00932503 0.0109742 0.379024
1175 1 0.613301 0.495487 0.130205
61 1 0.878074 0.120756 0.0084643
1439 1 0.930725 0.488443 0.423195
1167 1 0.436946 0.50006 0.183942
137 1 0.239659 0.00586352 0.130503
73 1 0.262331 0.24744 0.0133423
483 1 0.00292441 0.37137 0.499482
275 1 0.562849 0.00606767 0.308594
69 1 0.132481 0.25517 0.0116003
90 1 0.796531 0.315412 0.000378863
1 1 0.997438 0.00470795 0.000566188
1541 1 0.128775 0.497224 0.496762
21 1 0.633345 0.00403718 0.00329189
547 1 0.997256 0.253481 0.496952
578 1 0.0568364 0.309744 0.496755
106 1 0.318296 0.443071 0.00274924
521 1 0.2636 0.00157122 0.497881
531 1 0.621837 0.00111878 0.495964
557 1 0.382458 0.140449 0.496751
626 1 0.55818 0.440148 0.496814
105 1 0.248953 0.376311 0.00187661
121 1 0.727852 0.386152 0.00150896
33 1 0.998191 0.121475 0.00274858
562 1 0.54626 0.189202 0.504756
1819 1 0.801742 0.496941 0.811313
1642 1 0.318101 0.00370183 0.561703
85 1 0.629837 0.245822 0.99937
110 1 0.44163 0.434414 0.995217
122 1 0.80704 0.424032 0.990665
886 1 0.687406 0.497444 0.686229
1524 1 0.49779 0.000262198 0.502289
1941 1 0.613961 0.497505 0.879367
638 1 0.933398 0.448691 0.502684
102 1 0.12711 0.361923 1.00064
569 1 0.82096 0.0700502 0.502682
793 1 0.751505 0.015421 0.75623
520 1 0.0542968 0.128867 0.551282
551 1 0.183153 0.127136 0.554404
539 1 0.813379 0.00311448 0.549947
642 1 0.130889 0.00969443 0.607278
1815 1 0.688081 0.494739 0.805021
565 1 0.616977 0.138879 0.506812
614 1 0.181556 0.434874 0.505855
622 1 0.433589 0.429478 0.500608
1939 1 0.560587 0.496207 0.941402
760 1 0.564896 0.493712 0.68942
1681 1 0.506021 0.487351 0.631726
587 1 0.302786 0.240994 0.561004
645 1 0.182777 0.000890355 0.676999
37 1 0.117393 0.131631 0.994166
584 1 0.117626 0.314423 0.569253
588 1 0.250633 0.30816 0.567904
1679 1 0.435342 0.498968 0.684427
527 1 0.426933 0.0037105 0.55786
1803 1 0.321128 0.494306 0.815268
579 1 0.119157 0.254246 0.50356
582 1 0.181227 0.317775 0.503552
570 1 0.815244 0.195146 0.500313
1933 1 0.38488 0.49417 0.873436
647 1 0.249805 0.0038938 0.618901
601 1 0.759106 0.25859 0.507636
649 1 0.190071 0.00511041 0.55017
624 1 0.368891 0.437623 0.559191
789 1 0.620061 0.00768136 0.74533
1807 1 0.439664 0.49919 0.806587
616 1 0.115177 0.443309 0.561007
1945 1 0.743634 0.496141 0.867659
677 1 0.112974 0.064554 0.546331
532 1 0.497996 0.0671535 0.563045
1667 1 0.0652 0.499345 0.682946
516 1 0.991672 0.0576775 0.573327
524 1 0.255534 0.072824 0.554316
528 1 0.371817 0.0615396 0.562956
536 1 0.626369 0.0770173 0.553165
540 1 0.745386 0.0690796 0.561928
544 1 0.884257 0.0490942 0.55415
555 1 0.317972 0.128104 0.557528
686 1 0.435843 0.123507 0.560108
563 1 0.549565 0.131627 0.56242
567 1 0.691939 0.128756 0.562119
571 1 0.818379 0.132886 0.557168
542 1 0.938032 0.133851 0.555065
577 1 0.993146 0.196937 0.562603
552 1 0.131588 0.190376 0.55171
556 1 0.247025 0.180693 0.56163
560 1 0.371797 0.193765 0.559541
564 1 0.494311 0.187813 0.57012
568 1 0.641529 0.194203 0.559633
572 1 0.759687 0.187638 0.566709
576 1 0.874997 0.180822 0.589504
674 1 0.0603704 0.247858 0.561619
583 1 0.18459 0.251069 0.561783
593 1 0.437945 0.259095 0.566563
595 1 0.565932 0.248705 0.55729
599 1 0.696432 0.254773 0.567922
603 1 0.834177 0.257951 0.561356
607 1 0.928255 0.271814 0.559087
580 1 0.00183146 0.312106 0.570604
717 1 0.37559 0.316798 0.567024
596 1 0.502063 0.32424 0.562808
600 1 0.628568 0.302808 0.554011
729 1 0.756404 0.315562 0.568072
608 1 0.870717 0.330981 0.563357
611 1 0.0589918 0.382213 0.566448
615 1 0.182992 0.380625 0.566525
619 1 0.317228 0.37633 0.566685
623 1 0.430952 0.37826 0.573813
627 1 0.575916 0.363597 0.556797
631 1 0.68505 0.369885 0.565655
635 1 0.807017 0.381808 0.573981
609 1 0.9412 0.376381 0.566018
620 1 0.250698 0.440243 0.565762
628 1 0.506458 0.418649 0.565198
632 1 0.611321 0.437692 0.559738
636 1 0.753982 0.435743 0.560883
639 1 0.870938 0.42788 0.564992
612 1 0.994232 0.440978 0.557853
664 1 0.676326 0.0148171 0.818538
795 1 0.803145 0.00335937 0.81936
573 1 0.877393 0.128681 0.501069
529 1 0.554535 0.000480001 0.561905
1693 1 0.878028 0.492085 0.617864
662 1 0.690444 0.0661795 0.620959
669 1 0.805432 0.069497 0.628954
574 1 0.932774 0.20243 0.508732
801 1 0.0601718 0.0626256 0.615162
646 1 0.198923 0.0692593 0.612055
650 1 0.312925 0.0605727 0.629214
654 1 0.440637 0.063621 0.627869
657 1 0.559355 0.0633512 0.628051
670 1 0.93793 0.0402374 0.638441
680 1 0.127017 0.121409 0.613536
681 1 0.261278 0.123398 0.62011
685 1 0.377819 0.132588 0.612477
689 1 0.485716 0.126318 0.621483
693 1 0.614555 0.12578 0.626044
697 1 0.740117 0.130963 0.626061
701 1 0.882471 0.0947084 0.617069
673 1 0.00104426 0.123162 0.624671
575 1 0.0544647 0.18322 0.632401
678 1 0.184965 0.187283 0.622066
682 1 0.314071 0.196477 0.62419
591 1 0.425481 0.201848 0.618075
690 1 0.569121 0.190426 0.613593
694 1 0.6929 0.194377 0.622829
698 1 0.80868 0.180225 0.629338
548 1 0.939681 0.176297 0.641321
705 1 0.00207247 0.244097 0.629485
709 1 0.122388 0.249006 0.624274
713 1 0.244529 0.242413 0.618449
719 1 0.372954 0.256953 0.62431
721 1 0.501322 0.257993 0.617991
725 1 0.63244 0.252252 0.62538
700 1 0.769141 0.25683 0.62513
733 1 0.890252 0.250966 0.636517
706 1 0.0576915 0.321588 0.627112
710 1 0.17434 0.320106 0.626134
714 1 0.312893 0.31301 0.622364
718 1 0.440719 0.311669 0.628134
722 1 0.558925 0.317077 0.622518
726 1 0.691185 0.305352 0.631839
731 1 0.81828 0.319031 0.632076
734 1 0.940362 0.313764 0.621822
737 1 0.994571 0.380368 0.62312
741 1 0.119536 0.383277 0.623935
745 1 0.247093 0.378014 0.619922
749 1 0.374892 0.373271 0.629002
753 1 0.504961 0.370932 0.630927
757 1 0.629573 0.368608 0.625388
761 1 0.747052 0.368234 0.634336
765 1 0.883421 0.378133 0.632793
738 1 0.0558253 0.444942 0.621909
742 1 0.192488 0.437921 0.632395
750 1 0.431125 0.442263 0.623977
754 1 0.56194 0.424705 0.623769
758 1 0.683612 0.436186 0.612939
640 1 0.81582 0.439739 0.632725
766 1 0.938359 0.438674 0.627581
919 1 0.680956 0.000506905 0.931408
746 1 0.316597 0.433288 0.630256
1543 1 0.177329 0.493899 0.565271
22 1 0.699513 0.0579957 0.99182
972 1 0.252682 0.315164 0.935111
617 1 0.248575 0.370525 0.501499
1547 1 0.312877 0.498814 0.565973
648 1 0.12575 0.0624626 0.693332
652 1 0.248084 0.0717076 0.692884
656 1 0.38385 0.0548757 0.689167
660 1 0.493713 0.0509202 0.684435
658 1 0.631721 0.0622059 0.683677
668 1 0.743027 0.0598407 0.691633
794 1 0.87274 0.0666824 0.704412
644 1 0.00593867 0.0622985 0.697118
675 1 0.0650103 0.11259 0.678143
679 1 0.188838 0.12749 0.683074
683 1 0.312781 0.119117 0.68277
687 1 0.436604 0.126821 0.690001
691 1 0.546147 0.12814 0.675777
695 1 0.681047 0.126722 0.689758
667 1 0.791181 0.123316 0.687114
703 1 0.940682 0.115014 0.699674
802 1 0.124174 0.180816 0.680126
684 1 0.24198 0.189807 0.683188
688 1 0.369448 0.189309 0.680175
692 1 0.492348 0.195128 0.686447
822 1 0.627008 0.188717 0.679668
825 1 0.749923 0.197898 0.692857
704 1 0.86819 0.160321 0.683614
702 1 0.00357192 0.183388 0.695384
707 1 0.0685649 0.236217 0.687021
711 1 0.190644 0.262293 0.681971
715 1 0.310943 0.250951 0.688574
849 1 0.427939 0.251145 0.687567
723 1 0.560025 0.250857 0.677593
696 1 0.681225 0.252484 0.699624
730 1 0.821167 0.249529 0.68647
735 1 0.943424 0.246821 0.697237
708 1 0.00298415 0.307678 0.680094
712 1 0.118768 0.305497 0.690994
716 1 0.257242 0.320157 0.68512
720 1 0.367618 0.311996 0.680181
724 1 0.496551 0.303632 0.68327
727 1 0.611005 0.317592 0.685134
732 1 0.760389 0.310581 0.688244
736 1 0.877706 0.321419 0.688544
739 1 0.0614276 0.374048 0.685794
743 1 0.188678 0.37777 0.688449
747 1 0.317133 0.377034 0.690286
751 1 0.436372 0.368623 0.688595
728 1 0.556826 0.37662 0.691106
759 1 0.689745 0.381799 0.687919
763 1 0.810822 0.374527 0.691466
767 1 0.942373 0.371387 0.685227
740 1 0.0138079 0.43682 0.688206
744 1 0.128374 0.450082 0.687022
748 1 0.251274 0.431227 0.698192
752 1 0.367583 0.440956 0.689016
756 1 0.492015 0.432682 0.688602
1687 1 0.628482 0.440485 0.681956
762 1 0.751469 0.441751 0.685348
768 1 0.871632 0.435769 0.691865
81 1 0.454452 0.178752 0.993096
526 1 0.43329 0.0670354 0.504198
86 1 0.681465 0.308641 0.992363
46 1 0.451115 0.109857 0.9479
1813 1 0.626454 0.48582 0.744979
778 1 0.312366 0.0510824 0.739378
782 1 0.442308 0.0486268 0.754076
790 1 0.681315 0.066826 0.748354
535 1 0.685154 0.00700066 0.566069
770 1 0.0659607 0.0599658 0.751412
774 1 0.192986 0.0655759 0.754153
786 1 0.560952 0.0611593 0.74323
796 1 0.812736 0.0614287 0.76413
798 1 0.940603 0.0456109 0.744127
772 1 0.0134473 0.113488 0.757979
805 1 0.136014 0.12176 0.755434
809 1 0.258284 0.117681 0.760598
813 1 0.375622 0.107829 0.751788
817 1 0.497627 0.114605 0.750124
821 1 0.615875 0.125005 0.736535
826 1 0.749014 0.124034 0.756587
666 1 0.863886 0.126208 0.759075
676 1 0.0810117 0.184604 0.749122
806 1 0.188424 0.185315 0.743972
810 1 0.310309 0.182852 0.749302
814 1 0.435948 0.186751 0.747394
818 1 0.557977 0.182691 0.740016
823 1 0.681458 0.186015 0.747812
958 1 0.815642 0.192639 0.758045
830 1 0.927915 0.185355 0.75256
833 1 0.00472043 0.251569 0.748927
837 1 0.134407 0.245726 0.745704
841 1 0.253709 0.244045 0.744857
845 1 0.365924 0.240081 0.749663
851 1 0.51057 0.249283 0.745168
853 1 0.618818 0.237798 0.745886
857 1 0.747945 0.249733 0.756246
861 1 0.874647 0.258192 0.747579
834 1 0.0680253 0.307492 0.757126
838 1 0.187199 0.303543 0.747223
842 1 0.315974 0.306466 0.745276
846 1 0.430484 0.30976 0.749278
850 1 0.557027 0.317544 0.753765
854 1 0.691882 0.318663 0.742017
858 1 0.813577 0.314758 0.745394
862 1 0.933408 0.322232 0.753064
865 1 0.00180336 0.376706 0.748003
869 1 0.130345 0.365562 0.741481
873 1 0.250173 0.364883 0.747553
877 1 0.377086 0.370141 0.750969
881 1 0.493738 0.366411 0.752109
885 1 0.627172 0.369219 0.745463
889 1 0.748149 0.377722 0.746955
893 1 0.87209 0.377466 0.747577
866 1 0.0736022 0.44102 0.74324
874 1 0.322464 0.433275 0.757967
878 1 0.431579 0.441797 0.742734
755 1 0.550283 0.434268 0.752191
764 1 0.688472 0.435195 0.749876
890 1 0.811204 0.438491 0.747355
894 1 0.934413 0.432598 0.738212
870 1 0.18865 0.428297 0.749581
928 1 0.877608 0.0604961 0.942836
66 1 0.0623395 0.302818 0.990349
1023 1 0.881646 0.437783 0.935485
661 1 0.61592 0.00214537 0.626459
439 1 0.757205 0.129689 0.506387
1689 1 0.743484 0.494156 0.616089
18 1 0.566515 0.0573372 0.995496
776 1 0.128145 0.056033 0.809724
780 1 0.254982 0.0522966 0.807875
784 1 0.384438 0.0626666 0.822085
788 1 0.494416 0.0471645 0.819219
792 1 0.61198 0.0738886 0.812454
699 1 0.743184 0.0685772 0.814421
957 1 0.879048 0.0677837 0.814394
897 1 0.998372 0.0508518 0.825099
803 1 0.0703303 0.125448 0.80986
807 1 0.191158 0.112997 0.819289
811 1 0.315887 0.109685 0.818792
815 1 0.44589 0.115977 0.814243
819 1 0.545131 0.116872 0.814541
827 1 0.678963 0.126237 0.801276
832 1 0.810086 0.144903 0.82188
800 1 0.939912 0.128957 0.822324
808 1 0.140475 0.179828 0.825408
934 1 0.246773 0.183544 0.815029
816 1 0.377725 0.173176 0.815761
945 1 0.501878 0.188659 0.800075
824 1 0.620415 0.188995 0.810378
828 1 0.741989 0.186891 0.810532
829 1 0.878605 0.183772 0.827197
831 1 0.00499022 0.178952 0.808669
835 1 0.072678 0.240925 0.809225
840 1 0.205574 0.247609 0.80772
843 1 0.300833 0.249082 0.813601
847 1 0.437671 0.248521 0.800501
856 1 0.566761 0.251319 0.80884
855 1 0.682907 0.248062 0.803858
859 1 0.815793 0.257627 0.814058
863 1 0.934566 0.255059 0.802724
836 1 0.00118139 0.319636 0.804152
962 1 0.130103 0.299523 0.807008
844 1 0.254363 0.309765 0.81317
848 1 0.374278 0.302504 0.805701
852 1 0.492994 0.303929 0.809287
887 1 0.621835 0.311198 0.799457
860 1 0.739514 0.311795 0.812
864 1 0.869529 0.319628 0.810575
867 1 0.0632888 0.374995 0.811838
871 1 0.185088 0.36298 0.811356
875 1 0.3231 0.374182 0.813978
879 1 0.437019 0.367055 0.811849
883 1 0.557632 0.373249 0.808314
982 1 0.683173 0.377529 0.807112
891 1 0.807763 0.375448 0.807709
895 1 0.934562 0.392071 0.812585
872 1 0.133734 0.437812 0.809117
880 1 0.384991 0.433472 0.809079
888 1 0.613703 0.430958 0.809087
892 1 0.751607 0.437813 0.807988
896 1 0.874904 0.448036 0.803741
868 1 0.00474833 0.441435 0.798491
1947 1 0.814338 0.489813 0.941565
663 1 0.694468 -0.00301418 0.685816
876 1 0.251884 0.430739 0.809086
884 1 0.489112 0.434181 0.810138
987 1 0.811546 0.264686 0.931939
618 1 0.305189 0.438418 0.504108
114 1 0.571437 0.431939 0.993335
1935 1 0.460031 0.498774 0.938971
1923 1 0.0571685 0.420923 0.999598
74 1 0.317165 0.307661 0.998562
643 1 0.0692588 0.00533536 0.691002
1040 1 0.381533 0.495929 0.986784
898 1 0.0731445 0.0582606 0.88169
902 1 0.186666 0.0556621 0.871891
906 1 0.316129 0.0567057 0.877173
910 1 0.431557 0.0489666 0.893817
914 1 0.562756 0.0618674 0.880813
918 1 0.696678 0.0689559 0.875607
922 1 0.819994 0.0694898 0.877252
926 1 0.943609 0.0617296 0.886025
933 1 0.126626 0.127433 0.889907
937 1 0.238719 0.117392 0.888029
941 1 0.387568 0.121525 0.881577
943 1 0.492966 0.104653 0.877924
949 1 0.634463 0.124439 0.86968
953 1 0.753044 0.132377 0.879673
955 1 0.884848 0.12521 0.878604
929 1 0.0102101 0.114756 0.871404
932 1 0.0528455 0.183881 0.873677
839 1 0.195018 0.183919 0.887622
812 1 0.309426 0.186202 0.874361
942 1 0.445148 0.188178 0.866785
981 1 0.550123 0.178237 0.867733
950 1 0.69131 0.183317 0.882293
954 1 0.816324 0.19578 0.884873
961 1 0.943462 0.200961 0.884038