ITEM: TIMESTEP
100000
ITEM: NUMBER OF ATOMS
2048
ITEM: BOX BOUNDS pp pp pp
0.0000000000000000e+00 1.1093780389610155e+01
0.0000000000000000e+00 1.1093780389610155e+01
0.0000000000000000e+00 1.1093780389610155e+01
ITEM: ATOMS id type xs ys zs
517 1 0.127971 0.00251937 0.500541
30 1 0.934552 0.063186 0.000871798
271 1 0.438349 0.00156461 0.313035
16 1 0.369202 0.0605243 0.0665761
45 1 0.373314 0.125496 0.003277
20 1 0.497039 0.0674843 0.0626036
24 1 0.626979 0.0663258 0.0641956
32 1 0.874886 0.0615617 0.0642582
1421 1 0.375771 0.499095 0.377448
1419 1 0.30995 0.497366 0.434805
47 1 0.438769 0.127205 0.0571209
385 1 0.997859 0.00216118 0.3836
51 1 0.563466 0.125678 0.0607672
397 1 0.370237 0.00205481 0.376918
28 1 0.752168 0.0646989 0.0613884
387 1 0.0636034 0.000575342 0.44273
257 1 0.996076 0.00219967 0.252305
55 1 0.686033 0.127026 0.0649749
59 1 0.816877 0.125931 0.0622762
63 1 0.938029 0.125608 0.0656765
1167 1 0.439179 0.498098 0.184579
53 1 0.625733 0.124131 -0.00237476
44 1 0.245057 0.18716 0.0607474
1289 1 0.249773 0.499118 0.250895
79 1 0.438449 0.249446 0.0652723
83 1 0.56535 0.249668 0.063324
589 1 0.375784 0.252394 0.499045
87 1 0.686864 0.248634 0.0634534
60 1 0.752422 0.182777 0.06168
23 1 0.689801 0.00196152 0.0616295
534 1 0.687411 0.0583877 0.496078
71 1 0.185919 0.248296 0.0615893
395 1 0.308759 0.00190629 0.438219
80 1 0.376663 0.312166 0.0640368
84 1 0.502179 0.307212 0.0615615
1285 1 0.118606 0.49972 0.250221
143 1 0.437483 -0.000484198 0.188002
95 1 0.935239 0.254374 0.0632133
285 1 0.876254 -0.000421399 0.24637
107 1 0.312421 0.378166 0.0627229
1311 1 0.936431 0.498909 0.310839
1299 1 0.55809 0.497846 0.311721
115 1 0.561549 0.375928 0.0637807
13 1 0.373789 0.00224113 0.00165353
92 1 0.745102 0.310677 0.0617602
96 1 0.870775 0.316125 0.0579199
261 1 0.127958 0.00265762 0.252799
68 1 0.994992 0.31779 0.0604146
99 1 0.0589903 0.374892 0.0643449
33 1 0.998525 0.120715 0.00276061
19 1 0.565349 0.00269533 0.0641154
265 1 0.245888 0.00231252 0.253673
598 1 0.684253 0.313955 0.499022
629 1 0.62599 0.375884 0.500482
518 1 0.187035 0.0648107 0.500799
21 1 0.630627 0.00384976 0.00246173
26 1 0.81855 0.0600304 0.0030073
1035 1 0.312423 0.498394 0.0616354
112 1 0.374999 0.437126 0.0648518
637 1 0.876151 0.372299 0.500572
11 1 0.308857 0.00238125 0.0619786
128 1 0.872381 0.442942 0.0602956
1179 1 0.812862 0.501321 0.185541
1293 1 0.373133 0.497927 0.247891
97 1 0.99504 0.376188 -0.00111298
504 1 0.625096 0.436043 0.441774
259 1 0.0613066 0.00414611 0.317361
142 1 0.439101 0.0608015 0.119052
37 1 0.123582 0.122043 0.00134143
150 1 0.685205 0.0654172 0.128263
492 1 0.251269 0.436582 0.432507
82 1 0.566088 0.316923 -0.00185607
158 1 0.941995 0.0606955 0.131229
4 1 -0.000428439 0.0613554 0.0662991
8 1 0.123434 0.0571068 0.0655155
12 1 0.248176 0.0650619 0.0587042
169 1 0.247945 0.124666 0.122462
43 1 0.307289 0.126588 0.0595443
173 1 0.370096 0.124686 0.12604
177 1 0.502852 0.128796 0.121772
181 1 0.626955 0.127844 0.1253
154 1 0.813858 0.0639574 0.126775
189 1 0.876444 0.128904 0.12417
35 1 0.0622565 0.119206 0.0635118
39 1 0.180787 0.120253 0.0596763
170 1 0.311206 0.184609 0.122986
48 1 0.37619 0.185819 0.0631445
52 1 0.50213 0.192976 0.0630072
56 1 0.62738 0.183388 0.057167
161 1 0.000584197 0.120135 0.12324
40 1 0.123217 0.187352 0.062674
166 1 0.185856 0.185126 0.124519
75 1 0.315567 0.248482 0.0643687
209 1 0.500292 0.250181 0.12587
64 1 0.875837 0.193219 0.0602906
221 1 0.871907 0.25395 0.124844
36 1 0.998744 0.189348 0.0593406
67 1 0.0626923 0.248414 0.0578632
72 1 0.123508 0.309975 0.0595426
205 1 0.375819 0.249486 0.125763
206 1 0.438618 0.312314 0.12464
91 1 0.808381 0.25486 0.0620362
103 1 0.186542 0.371443 0.0667171
76 1 0.244893 0.309043 0.0620309
111 1 0.444765 0.371735 0.0628344
88 1 0.630604 0.317273 0.0569632
214 1 0.685565 0.313276 0.125576
123 1 0.81326 0.377147 0.0590015
218 1 0.812356 0.31631 0.126849
222 1 0.933534 0.314007 0.127279
229 1 0.122045 0.373949 0.123785
108 1 0.249066 0.437413 0.063757
238 1 0.440027 0.435146 0.122984
116 1 0.499678 0.438695 0.0597116
242 1 0.557557 0.439268 0.125021
119 1 0.692926 0.377763 0.0623151
249 1 0.746885 0.370373 0.130326
253 1 0.871786 0.379082 0.123405
127 1 0.934633 0.376235 0.0611349
1287 1 0.187236 0.499716 0.310831
104 1 0.124101 0.439715 0.0609983
151 1 0.689224 0.000960088 0.18818
1291 1 0.313622 0.497686 0.308581
1431 1 0.685469 0.499669 0.436941
120 1 0.62439 0.439571 0.0633258
124 1 0.750572 0.440389 0.0568563
488 1 0.12678 0.438802 0.43814
100 1 0.998714 0.438698 0.0612033
138 1 0.303749 0.0611142 0.127383
484 1 -0.000233943 0.43635 0.437789
146 1 0.563871 0.0646554 0.127549
152 1 0.623679 0.0635548 0.18782
443 1 0.809728 0.121976 0.442099
130 1 0.0641349 0.060761 0.125493
163 1 0.0601442 0.121523 0.188176
165 1 0.125368 0.126379 0.127337
134 1 0.189726 0.065535 0.122131
140 1 0.244792 0.0628078 0.187969
171 1 0.312904 0.121856 0.188897
175 1 0.436102 0.123031 0.185239
183 1 0.688606 0.125388 0.184779
185 1 0.753724 0.122121 0.123767
160 1 0.874219 0.0622892 0.18653
132 1 0.00231558 0.0572741 0.1879
168 1 0.116745 0.190656 0.19293
172 1 0.247271 0.187264 0.186514
176 1 0.375572 0.187381 0.183707
174 1 0.434629 0.184327 0.123738
180 1 0.498543 0.186088 0.186018
179 1 0.56321 0.125553 0.188065
184 1 0.625052 0.18712 0.186371
182 1 0.688387 0.185452 0.126353
187 1 0.8136 0.129317 0.185356
164 1 -0.000438691 0.186106 0.186308
162 1 0.058883 0.184997 0.124644
201 1 0.246543 0.249191 0.120718
203 1 0.314414 0.249205 0.182566
178 1 0.565856 0.188535 0.119
213 1 0.629162 0.252141 0.126637
186 1 0.817788 0.189759 0.121804
190 1 0.936915 0.192479 0.12544
197 1 0.120791 0.247129 0.12556
198 1 0.178996 0.313279 0.123065
202 1 0.309388 0.313406 0.12248
212 1 0.500728 0.309324 0.185531
210 1 0.563654 0.315307 0.122977
217 1 0.751095 0.249421 0.123359
219 1 0.809972 0.249894 0.18719
193 1 0.00315386 0.250868 0.126959
225 1 0.995717 0.376151 0.119335
194 1 0.0621012 0.310778 0.121412
233 1 0.248215 0.376371 0.1274
208 1 0.376203 0.314653 0.182542
241 1 0.499783 0.373475 0.123981
247 1 0.686679 0.375974 0.188551
220 1 0.746668 0.311457 0.189384
224 1 0.87344 0.310492 0.186009
228 1 0.998969 0.438799 0.186748
226 1 0.0611328 0.441004 0.121316
237 1 0.376856 0.374353 0.123089
240 1 0.37658 0.433804 0.189199
239 1 0.439639 0.375798 0.185716
244 1 0.503623 0.439955 0.186053
245 1 0.624816 0.375447 0.124379
246 1 0.690265 0.435781 0.122626
254 1 0.938047 0.441576 0.122317
255 1 0.936436 0.376258 0.186691
232 1 0.12751 0.435035 0.185542
230 1 0.188243 0.444549 0.124331
435 1 0.566222 0.124018 0.437807
234 1 0.309836 0.437481 0.125064
1427 1 0.557141 0.496462 0.439471
512 1 0.876199 0.441557 0.435409
250 1 0.809209 0.437923 0.12426
258 1 0.062791 0.0616789 0.252486
136 1 0.127187 0.0645202 0.189283
423 1 0.187962 0.128792 0.435183
144 1 0.377852 0.0631708 0.182988
270 1 0.440897 0.061841 0.25185
1297 1 0.49733 0.499536 0.248654
274 1 0.563793 0.0650162 0.252544
630 1 0.688737 0.437122 0.499661
62 1 0.938234 0.190111 -0.00038476
508 1 0.747332 0.439886 0.43401
420 1 0.00245365 0.187661 0.440459
148 1 0.498769 0.0638362 0.185142
305 1 0.499765 0.124893 0.250352
156 1 0.751739 0.0634437 0.184758
282 1 0.810663 0.0630269 0.245462
286 1 0.937245 0.0642591 0.249651
167 1 0.186273 0.128389 0.18959
297 1 0.249992 0.126245 0.24777
301 1 0.372703 0.121807 0.247825
313 1 0.752068 0.126596 0.24976
191 1 0.937184 0.126433 0.185363
290 1 0.0619606 0.193359 0.252112
199 1 0.185324 0.250031 0.185692
207 1 0.436508 0.248965 0.183472
211 1 0.561797 0.247563 0.180889
306 1 0.562492 0.185714 0.24547
215 1 0.688987 0.246028 0.187962
188 1 0.752232 0.186356 0.183549
192 1 0.874444 0.191295 0.185825
223 1 0.941684 0.25293 0.18759
195 1 0.0578599 0.252809 0.190167
325 1 0.12527 0.2552 0.252309
204 1 0.253015 0.31082 0.18514
333 1 0.375165 0.249712 0.244529
334 1 0.436654 0.311691 0.244036
216 1 0.622675 0.313411 0.186848
342 1 0.68882 0.309674 0.250594
349 1 0.872449 0.251156 0.247766
350 1 0.936299 0.312857 0.250978
196 1 -0.000340882 0.318937 0.183666
227 1 0.0639096 0.376435 0.185326
200 1 0.125379 0.313084 0.184095
231 1 0.186664 0.369858 0.187697
361 1 0.251203 0.371868 0.250413
235 1 0.315061 0.377062 0.191001
377 1 0.747114 0.373807 0.248401
236 1 0.250883 0.434755 0.188589
362 1 0.316887 0.437552 0.250366
365 1 0.377695 0.373642 0.248309
366 1 0.434816 0.441096 0.253552
243 1 0.559561 0.377457 0.191768
248 1 0.625404 0.439878 0.185724
252 1 0.752064 0.433302 0.186999
251 1 0.812947 0.373039 0.189604
381 1 0.873829 0.376372 0.249749
382 1 0.934424 0.437668 0.250319
358 1 0.188279 0.435345 0.24853
503 1 0.690065 0.376189 0.439013
70 1 0.191088 0.307513 -0.000260238
499 1 0.564349 0.379321 0.438907
256 1 0.87453 0.436983 0.185934
500 1 0.49628 0.432417 0.440027
260 1 0.998118 0.0617237 0.311693
597 1 0.622246 0.252908 0.499253
1177 1 0.750781 0.496637 0.11789
448 1 0.876052 0.181701 0.440311
447 1 0.940224 0.123539 0.442686
405 1 0.622867 0.000903538 0.373307
276 1 0.500586 0.0657809 0.31589
496 1 0.373766 0.437863 0.442769
408 1 0.626951 0.060073 0.434129
404 1 0.505971 0.0622662 0.436696
288 1 0.874793 0.0587699 0.315615
1303 1 0.688393 0.498624 0.313749
262 1 0.192168 0.0633006 0.252025
266 1 0.313929 0.0580393 0.250401
272 1 0.371452 0.0628245 0.309171
309 1 0.626814 0.12298 0.248943
280 1 0.62741 0.0637144 0.314779
278 1 0.68567 0.0609653 0.250339
315 1 0.812837 0.126966 0.311987
317 1 0.874139 0.122086 0.246944
289 1 0.998125 0.122077 0.249293
293 1 0.120768 0.124927 0.251193
295 1 0.186108 0.127997 0.313463
298 1 0.315491 0.185936 0.245914
308 1 0.502809 0.184184 0.313708
310 1 0.689566 0.184838 0.25089
314 1 0.813883 0.191126 0.249743
294 1 0.186399 0.191962 0.254031
329 1 0.251485 0.247946 0.24583
302 1 0.438609 0.185467 0.246236
337 1 0.497719 0.247697 0.248948
341 1 0.622274 0.248387 0.253187
345 1 0.75141 0.247097 0.247695
347 1 0.813239 0.247677 0.313849
318 1 0.935502 0.189951 0.252039
323 1 0.0582478 0.252386 0.316001
322 1 0.0608668 0.315827 0.247511
328 1 0.125011 0.317214 0.312868
326 1 0.188524 0.311578 0.245791
330 1 0.312532 0.31163 0.247432
343 1 0.684519 0.249322 0.310394
348 1 0.750992 0.312769 0.307636
346 1 0.809723 0.309751 0.250541
321 1 -2.24358e-05 0.254026 0.255637
363 1 0.31359 0.377863 0.314184
336 1 0.375077 0.312245 0.309485
338 1 0.558517 0.30904 0.246633
344 1 0.619378 0.314494 0.309765
375 1 0.688118 0.378852 0.311232
353 1 0.998928 0.375301 0.250056
324 1 0.0032624 0.317866 0.315049
354 1 0.0625948 0.437876 0.247731
355 1 0.0625364 0.381752 0.311593
357 1 0.123539 0.378599 0.250956
364 1 0.24787 0.434609 0.308483
369 1 0.495118 0.382355 0.251709
370 1 0.564433 0.439775 0.248398
373 1 0.62493 0.37736 0.250491
374 1 0.689686 0.438587 0.247232
378 1 0.809018 0.435549 0.24903
391 1 0.188699 0.00299148 0.434584
360 1 0.126535 0.434446 0.307938
411 1 0.809168 0.0032165 0.437362
1411 1 0.0666626 0.498858 0.438596
491 1 0.313062 0.377726 0.43804
601 1 0.745926 0.251548 0.498825
380 1 0.751534 0.433707 0.3169
427 1 0.320357 0.124349 0.434774
264 1 0.124732 0.0653766 0.3121
472 1 0.620794 0.314324 0.433122
452 1 0.99844 0.312823 0.440686
1055 1 0.939538 0.500823 0.0578778
487 1 0.18808 0.375508 0.436996
460 1 0.249966 0.315325 0.435093
475 1 0.816642 0.246324 0.440689
417 1 0.000737746 0.124684 0.377363
386 1 0.0618673 0.0598441 0.382612
268 1 0.248201 0.0592606 0.314301
303 1 0.436014 0.121736 0.31479
398 1 0.438006 0.0583649 0.37514
311 1 0.692672 0.12462 0.311212
284 1 0.75024 0.0623866 0.310824
319 1 0.937469 0.124497 0.314707
414 1 0.932953 0.0592902 0.379826
291 1 0.0605261 0.126246 0.309332
421 1 0.124401 0.123567 0.373333
422 1 0.188443 0.190766 0.37463
299 1 0.310438 0.121406 0.314066
429 1 0.378099 0.126027 0.374394
307 1 0.563959 0.125732 0.312982
316 1 0.749549 0.188601 0.317217
320 1 0.875111 0.186157 0.312082
292 1 0.999008 0.185162 0.311825
296 1 0.122593 0.19127 0.315709
300 1 0.247636 0.193628 0.315483
304 1 0.379178 0.189066 0.312213
430 1 0.439563 0.188833 0.373144
335 1 0.437876 0.250688 0.308578
312 1 0.627365 0.185214 0.313159
438 1 0.686439 0.190217 0.377092
351 1 0.935126 0.250993 0.312149
327 1 0.18475 0.258956 0.314797
331 1 0.311887 0.249212 0.308563
461 1 0.373476 0.249187 0.373162
340 1 0.495153 0.314617 0.308896
339 1 0.555682 0.251409 0.311685
473 1 0.753196 0.251172 0.381225
477 1 0.873135 0.249302 0.376381
478 1 0.939301 0.308924 0.377968
449 1 0.999007 0.247757 0.377594
450 1 0.0612585 0.317522 0.373215
359 1 0.187746 0.369282 0.311226
332 1 0.252721 0.309739 0.309597
470 1 0.685222 0.310862 0.371929
352 1 0.870221 0.308982 0.310187
383 1 0.933113 0.368564 0.313395
356 1 0.997196 0.438195 0.310283
481 1 0.995912 0.373317 0.374803
490 1 0.310048 0.43779 0.373887
368 1 0.374691 0.437802 0.316309
367 1 0.436589 0.373847 0.314249
372 1 0.494862 0.436501 0.315153
371 1 0.559713 0.378568 0.308829
376 1 0.624025 0.436778 0.311147
502 1 0.687899 0.439925 0.373756
379 1 0.814194 0.37215 0.313278
384 1 0.873585 0.437446 0.313374
510 1 0.936148 0.439669 0.375595
444 1 0.748479 0.185396 0.439472
482 1 0.0601745 0.439352 0.377888
495 1 0.430967 0.372895 0.434571
102 1 0.185642 0.429912 0.000571937
440 1 0.619085 0.191925 0.437715
476 1 0.748396 0.313682 0.440332
451 1 0.0603902 0.255402 0.437901
392 1 0.127679 0.0624166 0.440426
480 1 0.872984 0.309759 0.439266
507 1 0.814803 0.374979 0.436368
471 1 0.68429 0.254605 0.436285
428 1 0.248724 0.185983 0.435752
412 1 0.748911 0.0616265 0.431745
388 1 0.996284 0.0627584 0.440839
390 1 0.187069 0.0610818 0.37822
396 1 0.247683 0.0636522 0.440364
394 1 0.309186 0.063149 0.373948
400 1 0.378188 0.0578336 0.437506
402 1 0.56407 0.0681675 0.374026
406 1 0.689179 0.061386 0.373419
410 1 0.812462 0.0612307 0.373265
416 1 0.873913 0.0625118 0.441614
419 1 0.0637606 0.123077 0.437228
424 1 0.126959 0.1909 0.434394
425 1 0.250399 0.128077 0.371652
426 1 0.314069 0.183274 0.373842
432 1 0.376645 0.189116 0.437871
431 1 0.436548 0.122554 0.436872
433 1 0.502426 0.127387 0.377041
437 1 0.626364 0.124351 0.37549
439 1 0.687389 0.12317 0.435686
441 1 0.753046 0.125981 0.376618
442 1 0.814864 0.187525 0.3768
445 1 0.873254 0.122348 0.380257
446 1 0.940116 0.185013 0.377609
418 1 0.0643749 0.186911 0.374608
459 1 0.313284 0.24986 0.435691
436 1 0.493943 0.18688 0.440696
434 1 0.563256 0.186007 0.376425
479 1 0.938508 0.247874 0.435907
453 1 0.120017 0.253433 0.375667
455 1 0.191267 0.248461 0.437376
457 1 0.250393 0.25035 0.375144
463 1 0.4386 0.252803 0.436752
462 1 0.432864 0.309901 0.372328
465 1 0.498135 0.253304 0.372469
469 1 0.618916 0.251764 0.371919
456 1 0.124518 0.315743 0.439224
485 1 0.124215 0.373624 0.378042
454 1 0.186441 0.314318 0.378865
489 1 0.250114 0.374653 0.371101
458 1 0.31159 0.312563 0.373797
493 1 0.374378 0.374222 0.37344
497 1 0.499262 0.374164 0.374907
466 1 0.556288 0.312873 0.371556
474 1 0.812419 0.313665 0.374125
483 1 0.0608584 0.376995 0.441844
486 1 0.187308 0.437095 0.370397
494 1 0.436325 0.436053 0.379076
498 1 0.560693 0.435859 0.374233
501 1 0.624629 0.373938 0.3716
505 1 0.750037 0.37406 0.377887
509 1 0.878816 0.373624 0.376377
511 1 0.937384 0.37802 0.438446
617 1 0.253244 0.377506 0.498073
468 1 0.501454 0.315087 0.435653
31 1 0.936941 -0.000152217 0.059901
464 1 0.37219 0.311337 0.437578
467 1 0.558859 0.24628 0.439794
506 1 0.815147 0.436512 0.373522
594 1 0.563435 0.315781 0.497296
109 1 0.377275 0.372276 0.00038039
403 1 0.561483 0.00162853 0.43407
141 1 0.373648 0.00252224 0.126807
1155 1 0.0608081 0.499809 0.18649
566 1 0.681637 0.187554 0.495292
17 1 0.498872 0.00519242 0.00109288
74 1 0.314756 0.312119 0.0010657
113 1 0.501454 0.37451 0.00024398
78 1 0.440603 0.313376 0.000603331
585 1 0.252059 0.25028 0.499636
1435 1 0.817223 0.500106 0.434309
1423 1 0.437411 0.496979 0.442678
1047 1 0.687345 0.499622 0.0608884
54 1 0.692441 0.181756 -8.73905e-05
61 1 0.874987 0.128234 0.0018347
14 1 0.434621 0.0645688 0.00350954
27 1 0.814576 0.000317951 0.0648845
283 1 0.813237 0.00206488 0.30839
1429 1 0.619891 0.496234 0.376167
1175 1 0.687046 0.499088 0.185232
533 1 0.624032 0.00198587 0.496319
1305 1 0.752681 0.496581 0.249293
149 1 0.627343 0.00199077 0.124896
277 1 0.624889 0.00345073 0.250723
1301 1 0.62711 0.500931 0.250959
1157 1 0.126005 0.498991 0.12395
1283 1 0.059616 0.496495 0.311735
1295 1 0.439025 0.497366 0.313967
1425 1 0.495545 0.49552 0.378125
399 1 0.439461 0.00246389 0.438232
1159 1 0.184016 0.499375 0.18564
89 1 0.750016 0.25074 0.00115386
1565 1 0.877859 0.496627 0.49657
6 1 0.184105 0.0576376 0.00308644
2 1 0.0601558 0.0564201 0.00270519
18 1 0.567047 0.0656274 0.00661941
110 1 0.435873 0.440251 0.00484518
634 1 0.81751 0.436164 0.496631
521 1 0.247909 -0.000417835 0.498458
553 1 0.251592 0.129552 0.495217
121 1 0.750308 0.373169 0.00042685
105 1 0.249413 0.370853 0.0039411
586 1 0.307405 0.310863 0.499144
606 1 0.932064 0.312352 0.499021
98 1 0.0589198 0.433436 0.000557143
549 1 0.125222 0.127567 0.499419
77 1 0.375354 0.24555 0.00108549
1045 1 0.623318 0.499538 0.00096381
1029 1 0.123686 0.498592 0.00110056
73 1 0.252184 0.246775 0.001911
561 1 0.506338 0.122191 0.497341
58 1 0.814131 0.192849 0.00139917
530 1 0.563252 0.0602653 0.499696
795 1 0.813988 0.000648212 0.813795
528 1 0.378647 0.0587917 0.563252
9 1 0.25011 0.000698748 1.00017
1024 1 0.87445 0.439035 0.932642
544 1 0.877497 0.0637284 0.564298
94 1 0.931969 0.313804 0.999042
520 1 0.127319 0.0623489 0.563003
779 1 0.312103 0.000485378 0.813199
524 1 0.248661 0.0632189 0.554539
555 1 0.310605 0.128643 0.560981
66 1 0.062847 0.314255 1.00099
1679 1 0.434131 0.497019 0.686897
540 1 0.751609 0.0611021 0.565642
516 1 0.996748 0.0636952 0.566329
552 1 0.124537 0.187068 0.563392
551 1 0.184627 0.124319 0.562318
556 1 0.250631 0.189173 0.562074
38 1 0.18318 0.186885 0.999607
1817 1 0.752918 0.50272 0.747067
1927 1 0.185843 0.499804 0.941265
572 1 0.745151 0.191541 0.562857
571 1 0.810363 0.12637 0.564604
576 1 0.875999 0.18436 0.559965
1695 1 0.934124 0.496954 0.688736
575 1 0.939069 0.125366 0.563025
548 1 0.00487249 0.188117 0.563225
1675 1 0.311685 0.497959 0.684831
1559 1 0.690459 0.497789 0.561871
583 1 0.189356 0.25002 0.563882
591 1 0.437344 0.247635 0.563559
1677 1 0.376196 0.500633 0.624556
1025 1 3.94915e-05 0.497335 0.998556
118 1 0.687952 0.439465 0.999717
663 1 0.6885 0.000791536 0.688364
1797 1 0.124237 0.49708 0.753768
587 1 0.319513 0.24512 0.563387
570 1 0.805915 0.186836 0.500819
923 1 0.81299 0.00155882 0.941635
915 1 0.558624 0.000142178 0.939228
618 1 0.309977 0.441567 0.500937
580 1 0.995429 0.311959 0.562006
615 1 0.188719 0.374661 0.562612
588 1 0.253861 0.305722 0.566835
550 1 0.19002 0.188693 0.503188
655 1 0.437528 -0.000360106 0.687718
1549 1 0.371429 0.499917 0.499756
777 1 0.245007 0.000580861 0.749649
605 1 0.876619 0.247466 0.502407
557 1 0.37529 0.125671 0.499855
638 1 0.942456 0.438964 0.498571
1671 1 0.184139 0.494043 0.687652
628 1 0.499319 0.438078 0.562127
577 1 0.00353875 0.247574 0.499895
632 1 0.622548 0.438017 0.562529
1921 1 0.00157189 0.498654 0.875035
1929 1 0.248628 0.4944 0.874897
545 1 0.998839 0.124854 0.499372
1020 1 0.750514 0.439425 0.932145
669 1 0.87295 0.00101155 0.628663
541 1 0.873319 0.00356363 0.500983
614 1 0.188058 0.436622 0.500847
86 1 0.68684 0.309826 0.994432
1551 1 0.437777 0.496954 0.560312
650 1 0.310986 0.0664992 0.63086
654 1 0.439953 0.0623343 0.628703
532 1 0.501858 0.0528785 0.560976
658 1 0.561303 0.0618089 0.624801
536 1 0.629833 0.0634677 0.564955
662 1 0.690472 0.0610616 0.625398
666 1 0.811469 0.0603495 0.623621
657 1 0.501223 -0.000833791 0.628285
547 1 0.0632429 0.120185 0.563844
642 1 0.0630555 0.0605863 0.627143
646 1 0.18633 0.0610299 0.628727
685 1 0.376234 0.123408 0.627441
559 1 0.438593 0.123702 0.5624
563 1 0.564126 0.123726 0.562786
670 1 0.935082 0.0645352 0.626217
674 1 0.0614995 0.183283 0.625323
678 1 0.185948 0.187231 0.623449
560 1 0.376886 0.182007 0.563818
686 1 0.437847 0.180529 0.628078
567 1 0.687524 0.124985 0.562224
694 1 0.686529 0.186059 0.625301
701 1 0.876175 0.125846 0.624573
713 1 0.249424 0.249086 0.627938
564 1 0.500604 0.186522 0.564977
568 1 0.627903 0.188932 0.561772
599 1 0.686141 0.253643 0.559776
702 1 0.938938 0.184695 0.621973
579 1 0.0652631 0.251337 0.564268
714 1 0.315135 0.312807 0.624086
592 1 0.372413 0.310721 0.562934
596 1 0.503532 0.317508 0.560336
721 1 0.498162 0.25008 0.627451
595 1 0.565714 0.254295 0.56247
729 1 0.747192 0.251264 0.6229
603 1 0.81567 0.246655 0.564361
608 1 0.875361 0.308865 0.564468
607 1 0.936876 0.248071 0.564211
705 1 0.998852 0.247271 0.62325
584 1 0.125733 0.315868 0.565872
623 1 0.437848 0.37493 0.563175
627 1 0.563236 0.374943 0.559842
600 1 0.624854 0.314061 0.562397
726 1 0.685853 0.3132 0.623892
604 1 0.753018 0.310945 0.561995
635 1 0.812205 0.3726 0.55883
611 1 0.0635223 0.372177 0.56037
616 1 0.124623 0.434995 0.563279
620 1 0.248274 0.44171 0.563158
619 1 0.310384 0.37472 0.561703
624 1 0.376141 0.43488 0.563861
750 1 0.441017 0.436942 0.624972
754 1 0.56154 0.440532 0.625633
757 1 0.627454 0.374237 0.627579
631 1 0.68689 0.375752 0.559298
636 1 0.755699 0.435682 0.560615
639 1 0.938544 0.373707 0.564216
612 1 0.00346024 0.434795 0.567201
738 1 0.063878 0.433999 0.624973
742 1 0.18592 0.43799 0.6276
1691 1 0.813714 0.499187 0.685168
1008 1 0.377034 0.435103 0.938422
996 1 0.999414 0.432852 0.934139
758 1 0.691122 0.437344 0.623469
93 1 0.87353 0.25132 0.999069
640 1 0.8798 0.435497 0.561943
651 1 0.310851 -0.000129018 0.687371
1003 1 0.310482 0.374018 0.940535
1823 1 0.934977 0.497988 0.810123
660 1 0.501353 0.0627949 0.690854
1000 1 0.122561 0.438666 0.938433
677 1 0.124355 0.123832 0.627572
648 1 0.128931 0.0623141 0.689413
681 1 0.248494 0.12372 0.627028
652 1 0.247679 0.0618356 0.687204
687 1 0.442274 0.122689 0.689908
691 1 0.5593 0.123537 0.687467
697 1 0.748684 0.125309 0.628481
644 1 1.00065 0.0610437 0.688543
673 1 0.999526 0.125062 0.625283
682 1 0.315113 0.186445 0.627965
689 1 0.500059 0.123758 0.624101
693 1 0.627075 0.121286 0.62374
695 1 0.682225 0.124042 0.689783
699 1 0.810908 0.124545 0.687092
709 1 0.12374 0.248737 0.628547
711 1 0.18645 0.249925 0.688264
684 1 0.243692 0.18502 0.690252
715 1 0.309622 0.252485 0.689673
717 1 0.376496 0.244821 0.628276
719 1 0.437722 0.251459 0.686135
692 1 0.499765 0.186714 0.690226
690 1 0.564935 0.188991 0.6239
698 1 0.811801 0.187045 0.625507
733 1 0.874609 0.246149 0.624534
708 1 0.0017775 0.312502 0.688409
706 1 0.063625 0.314118 0.624609
712 1 0.123334 0.313627 0.688482
710 1 0.187364 0.310771 0.625718
716 1 0.246864 0.311537 0.691786
718 1 0.437915 0.311863 0.623224
724 1 0.503144 0.312244 0.684943
725 1 0.624583 0.248545 0.624141
734 1 0.93496 0.311505 0.623828
745 1 0.249182 0.371292 0.626477
749 1 0.377145 0.373324 0.625314
753 1 0.500963 0.372299 0.623836
722 1 0.563257 0.30877 0.624386
730 1 0.810218 0.310948 0.628091
765 1 0.878113 0.37258 0.623866
737 1 0.00358711 0.375207 0.626039
741 1 0.126049 0.373696 0.626713
746 1 0.314522 0.433086 0.625984
752 1 0.378079 0.432703 0.68971
755 1 0.565004 0.37693 0.685446
759 1 0.692697 0.37213 0.68659
761 1 0.748439 0.372354 0.621695
767 1 0.940564 0.373408 0.689002
1667 1 0.0636826 0.494955 0.691337
538 1 0.807894 0.0609581 0.503675
574 1 0.941859 0.187362 0.500465
760 1 0.628585 0.437202 0.689671
927 1 0.934517 0.00199466 0.936473
762 1 0.812683 0.436561 0.624474
1809 1 0.500361 0.496561 0.753123
766 1 0.940622 0.436997 0.62412
1665 1 0.0018963 0.49747 0.626072
964 1 0.999102 0.316976 0.943035
992 1 0.874484 0.313155 0.936747
786 1 0.558578 0.0563764 0.751975
573 1 0.871117 0.125356 0.502876
790 1 0.687491 0.0612336 0.753837
625 1 0.499614 0.377226 0.502355
1011 1 0.563754 0.373286 0.934664
675 1 0.0598591 0.124961 0.68602
679 1 0.188898 0.124561 0.687882
656 1 0.371676 0.0586942 0.686564
813 1 0.370401 0.120968 0.750723
782 1 0.434575 0.062617 0.749077
817 1 0.500354 0.124309 0.752712
664 1 0.624295 0.0600838 0.684418
821 1 0.618125 0.125151 0.750127
668 1 0.747471 0.0657607 0.690134
672 1 0.879851 0.0662874 0.687542
798 1 0.936987 0.0579307 0.752074
680 1 0.121848 0.186318 0.687312
683 1 0.310479 0.127648 0.689592
688 1 0.374027 0.184799 0.692377
704 1 0.872844 0.185238 0.689839
703 1 0.936601 0.125983 0.684658
676 1 0.00292092 0.18582 0.689836
707 1 0.0612054 0.251775 0.687413
818 1 0.560621 0.191419 0.749437
696 1 0.624618 0.188463 0.688512
727 1 0.683087 0.250154 0.690426
700 1 0.747325 0.1891 0.687452
826 1 0.813361 0.184962 0.750656
735 1 0.93922 0.246048 0.686916
837 1 0.122603 0.252999 0.754352
845 1 0.376128 0.249059 0.752493
723 1 0.566801 0.250631 0.687187
731 1 0.810542 0.24723 0.687953
861 1 0.87384 0.247351 0.755128
739 1 0.0626563 0.372173 0.685407
743 1 0.184117 0.374397 0.687433
747 1 0.311666 0.373217 0.685482
720 1 0.375 0.30968 0.689359
877 1 0.371837 0.376004 0.751736
751 1 0.438467 0.370239 0.685324
850 1 0.562491 0.315298 0.750721
728 1 0.628955 0.311612 0.69007
732 1 0.748553 0.310452 0.692196
889 1 0.75207 0.375834 0.747589
858 1 0.816845 0.314941 0.745058
736 1 0.874442 0.313452 0.685039
893 1 0.875913 0.375361 0.750897
865 1 0.996649 0.373956 0.749805
740 1 1.00164 0.434065 0.686292
748 1 0.252594 0.436003 0.684104
874 1 0.313251 0.43572 0.75327
756 1 0.498068 0.434148 0.68758
885 1 0.62723 0.373498 0.74969
763 1 0.812213 0.375587 0.684875
744 1 0.12142 0.430995 0.689816
1007 1 0.434533 0.373597 0.93473
117 1 0.623613 0.380522 0.999867
1935 1 0.435779 0.498425 0.945432
554 1 0.314227 0.189695 0.49768
882 1 0.562694 0.437891 0.748065
886 1 0.692839 0.437151 0.749539
764 1 0.750899 0.440794 0.68934
768 1 0.87314 0.435384 0.68054
894 1 0.936838 0.440773 0.74936
610 1 0.0612542 0.437995 0.502048
1801 1 0.251858 0.495164 0.748492
774 1 0.186253 0.0616617 0.752888
999 1 0.187312 0.373278 0.937466
784 1 0.374684 0.0663223 0.810195
792 1 0.623208 0.0648699 0.816117
796 1 0.75256 0.0642566 0.813267
770 1 0.0639832 0.0617101 0.748411
805 1 0.12448 0.125409 0.748349
809 1 0.248509 0.123297 0.752647
780 1 0.250254 0.0623172 0.812505
778 1 0.310035 0.0595707 0.748441
811 1 0.313369 0.126459 0.815779
815 1 0.436433 0.120635 0.813744
788 1 0.498334 0.0588987 0.813456
819 1 0.563074 0.125735 0.813125
825 1 0.748468 0.12593 0.751825
794 1 0.814655 0.0627222 0.750579
801 1 0.998122 0.123432 0.747584
802 1 0.0628805 0.188938 0.752882
810 1 0.310126 0.186139 0.749431
814 1 0.439127 0.184997 0.748873
820 1 0.498527 0.186178 0.813939
822 1 0.683823 0.188952 0.751422
828 1 0.754204 0.187139 0.814423
827 1 0.812242 0.119818 0.814084
829 1 0.875647 0.121212 0.752294
808 1 0.123196 0.188307 0.816132
806 1 0.180557 0.191816 0.751059
841 1 0.248422 0.250146 0.750837
812 1 0.247124 0.186094 0.810189
816 1 0.377944 0.186035 0.81414
849 1 0.497975 0.250984 0.746912
830 1 0.933321 0.187621 0.749231
833 1 0.997274 0.252075 0.750505
838 1 0.181131 0.312215 0.751468
842 1 0.314764 0.310579 0.752422
846 1 0.439641 0.310247 0.751194
851 1 0.560374 0.249813 0.812006
853 1 0.623386 0.248659 0.756018
854 1 0.692233 0.313014 0.756376
857 1 0.751305 0.247777 0.754593
859 1 0.813537 0.248959 0.814473
864 1 0.874248 0.311423 0.812101
863 1 0.937509 0.251039 0.813914
834 1 0.060186 0.313492 0.749607
869 1 0.123753 0.37408 0.752368
873 1 0.251607 0.373356 0.748078
881 1 0.50355 0.372875 0.748675
860 1 0.756174 0.311946 0.811726
862 1 0.934175 0.313485 0.752875
868 1 0.998935 0.434786 0.81472
866 1 0.0590468 0.434894 0.751834
870 1 0.18965 0.4353 0.751209
875 1 0.307649 0.373712 0.818381
880 1 0.372447 0.43877 0.814898
878 1 0.435223 0.442041 0.750079
884 1 0.498877 0.436738 0.814135
888 1 0.626835 0.436351 0.810607
887 1 0.691067 0.377273 0.813071
546 1 0.0643776 0.188539 0.504812
633 1 0.750262 0.372953 0.501389
968 1 0.12624 0.313443 0.936438
892 1 0.754894 0.437609 0.81039
995 1 0.0624224 0.37523 0.935916
890 1 0.814074 0.434845 0.748914
667 1 0.808977 0.00141162 0.686965
519 1 0.184106 0.00247401 0.562305
991 1 0.937671 0.250134 0.934281
963 1 0.0606919 0.250426 0.938054
918 1 0.690542 0.0561212 0.877484
940 1 0.249875 0.184429 0.940579
800 1 0.876313 0.062493 0.817876
926 1 0.938608 0.0636387 0.877802
803 1 0.0578564 0.12382 0.813279
776 1 0.122872 0.0609634 0.812862
937 1 0.244818 0.12324 0.877188
941 1 0.372203 0.123134 0.8775
945 1 0.497703 0.125252 0.87607
949 1 0.623195 0.121383 0.877015
922 1 0.814217 0.0647904 0.877148
772 1 0.999601 0.0605087 0.808869
933 1 0.126365 0.124158 0.87633
807 1 0.183618 0.125521 0.81072
938 1 0.315452 0.188254 0.874077
946 1 0.566526 0.189758 0.873355
824 1 0.626205 0.186486 0.81449
823 1 0.68902 0.122705 0.813325
950 1 0.687309 0.18336 0.875155
953 1 0.754925 0.127424 0.878304
832 1 0.876028 0.183453 0.811012
957 1 0.876219 0.124542 0.87433
831 1 0.939142 0.126925 0.811941
804 1 0.998218 0.186229 0.811742
835 1 0.0623927 0.247484 0.813875
855 1 0.684886 0.248249 0.816743
958 1 0.939145 0.192867 0.87198
839 1 0.188449 0.247434 0.814958
844 1 0.246216 0.312142 0.809132
843 1 0.307061 0.24746 0.813765
848 1 0.376332 0.315467 0.814955
847 1 0.437534 0.247761 0.81301
856 1 0.627158 0.311741 0.812959
985 1 0.750584 0.251488 0.876391
989 1 0.87611 0.252922 0.874511
836 1 0.996866 0.310808 0.811462
840 1 0.125872 0.315045 0.817604
879 1 0.43698 0.376842 0.813354
852 1 0.499196 0.315686 0.81737
982 1 0.688581 0.311747 0.873231
895 1 0.937899 0.37822 0.813859
990 1 0.936581 0.315827 0.878178
867 1 0.0607796 0.37472 0.817691
871 1 0.187705 0.378453 0.819992
876 1 0.253347 0.437077 0.813358
1005 1 0.372213 0.374986 0.868914
883 1 0.563239 0.382559 0.815029
891 1 0.814753 0.37229 0.813017
896 1 0.873713 0.435778 0.809368
872 1 0.124478 0.439001 0.814785
645 1 0.123954 0.00175026 0.622403
899 1 0.0650474 -0.000787181 0.937358
783 1 0.43524 0.00294077 0.811451
931 1 0.0616179 0.122404 0.942013
590 1 0.436053 0.311545 0.499213
1014 1 0.686573 0.437558 0.87086
1018 1 0.813701 0.438885 0.871154
947 1 0.560562 0.124595 0.939198
535 1 0.688634 0.00158894 0.561466
932 1 0.999088 0.183271 0.938303
581 1 0.128241 0.251874 0.504478
902 1 0.186171 0.0617229 0.873517
967 1 0.18717 0.246818 0.936894