LAMMPS (15 Sep 2022)
OMP_NUM_THREADS environment is not set. Defaulting to 1 thread. (src/comm.cpp:98)
  using 1 OpenMP thread(s) per MPI task
# 2d WCA system, random initial configuration

#variable density equal 0.5
variable initial_temperature equal 3.0
variable final_temperature equal 0.1
variable dt equal 0.01
variable tau equal 100*${dt}
variable tau equal 100*0.01
variable thermo_time equal 50000*${dt}
variable thermo_time equal 50000*0.01
variable equil_steps equal 50000
variable run_steps equal 100000

units           lj
atom_style      atomic
dimension       3

lattice         fcc ${density}
lattice         fcc 1.5
Lattice spacing in x,y,z = 1.3867225 1.3867225 1.3867225
region          box block 0 8 0 8 0 8
# number of atom types
create_box      1 box
Created orthogonal box = (0 0 0) to (11.09378 11.09378 11.09378)
  1 by 2 by 2 MPI processor grid
create_atoms    1 box
Created 2048 atoms
  using lattice units in orthogonal box = (0 0 0) to (11.09378 11.09378 11.09378)
  create_atoms CPU = 0.000 seconds
mass 1 1.0

velocity all create ${initial_temperature} 33345
velocity all create 3 33345

pair_style      lj/cut 1.0
#type_1 type_2 epsilon sigma cutoff
pair_coeff      1 1 10.0 0.89089871814 1.0
pair_modify shift yes

timestep ${dt}
timestep 0.01
thermo ${thermo_time}
thermo 500

fix 1 all nvt temp ${initial_temperature} ${initial_temperature} ${tau}
fix 1 all nvt temp 3 ${initial_temperature} ${tau}
fix 1 all nvt temp 3 3 ${tau}
fix 1 all nvt temp 3 3 1
run ${equil_steps}
run 50000
Generated 0 of 0 mixed pair_coeff terms from geometric mixing rule
Neighbor list info ...
  update: every = 1 steps, delay = 0 steps, check = yes
  max neighbors/atom: 2000, page size: 100000
  master list distance cutoff = 1.3
  ghost atom cutoff = 1.3
  binsize = 0.65, bins = 18 18 18
  1 neighbor lists, perpetual/occasional/extra = 1 0 0
  (1) pair lj/cut, perpetual
      attributes: half, newton on
      pair build: half/bin/atomonly/newton
      stencil: half/bin/3d
      bin: standard
Per MPI rank memory allocation (min/avg/max) = 3.098 | 3.098 | 3.098 Mbytes
   Step          Temp          E_pair         E_mol          TotEng         Press     
         0   3              0.9375         0              5.4353027      55.122803    
       500   2.7441015      5.436445       0              9.5505874      108.91227    
      1000   2.9665443      5.983456       0              10.4311        115.00251    
      1500   3.0501836      5.9691407      0              10.542182      115.10313    
      2000   2.9209939      6.1279936      0              10.507345      117.05766    
      2500   3.0415452      5.9796901      0              10.53978       115.49616    
      3000   2.9805936      5.981384       0              10.450091      115.16748    
      3500   2.9810213      6.0739027      0              10.543251      116.57269    
      4000   3.0187456      6.0327673      0              10.558675      116.15213    
      4500   3.0353334      5.9943448      0              10.545122      115.76694    
      5000   3.0539998      6.0608767      0              10.63964       116.21669    
      5500   3.0738661      6.1033738      0              10.711921      116.68538    
      6000   3.0681144      6.1069023      0              10.706827      116.98468    
      6500   3.0945826      6.0663305      0              10.705938      116.48321    
      7000   3.0536067      6.1209446      0              10.699118      116.94608    
      7500   3.1064202      6.0199856      0              10.677341      115.70403    
      8000   3.1102022      6.0043474      0              10.667373      115.84272    
      8500   2.9984368      6.1665931      0              10.662052      117.63137    
      9000   3.0322049      6.122977       0              10.669063      117.06767    
      9500   3.1307042      6.0190203      0              10.712784      115.85038    
     10000   3.028301       6.1352024      0              10.675436      117.19634    
     10500   3.0801948      6.0943974      0              10.712434      116.57077    
     11000   3.1820275      6.0040557      0              10.774766      115.42361    
     11500   3.0127019      6.1682964      0              10.685143      117.0877     
     12000   3.0969269      6.0387007      0              10.681823      115.98519    
     12500   3.0688488      6.0784428      0              10.679468      116.22319    
     13000   3.1241554      6.2123005      0              10.896245      117.92164    
     13500   3.0832263      6.0483404      0              10.670922      116.20214    
     14000   3.1013538      6.0124573      0              10.662216      115.81633    
     14500   3.1021107      5.9993974      0              10.650291      115.57339    
     15000   3.0893554      6.0859759      0              10.717746      116.42777    
     15500   3.0890144      6.0619804      0              10.693239      116.33997    
     16000   3.0196481      6.0884337      0              10.615694      116.67595    
     16500   3.1144557      6.0552         0              10.724602      116.36443    
     17000   3.076086       6.0978032      0              10.709679      116.93941    
     17500   3.0477562      6.0868692      0              10.656271      116.35338    
     18000   3.1466368      6.0490989      0              10.766749      116.12925    
     18500   3.1531085      5.9926722      0              10.720026      115.76795    
     19000   3.00916        6.1795457      0              10.691082      117.3278     
     19500   3.0009423      6.2203962      0              10.719612      117.75894    
     20000   3.1291133      6.0643119      0              10.75569       116.30324    
     20500   3.1214081      5.9973879      0              10.677214      115.71206    
     21000   3.1030425      6.0598825      0              10.712173      116.15668    
     21500   3.1264764      6.0650238      0              10.752449      116.08248    
     22000   3.0355244      6.1459688      0              10.697032      117.48185    
     22500   3.1235501      5.981824       0              10.664861      115.50335    
     23000   3.0888034      6.1058122      0              10.736755      116.7696     
     23500   3.1203258      6.1373362      0              10.815539      117.14593    
     24000   3.0616289      6.0557976      0              10.645999      116.0433     
     24500   3.0313102      6.0424002      0              10.587145      115.91368    
     25000   3.16192        5.9983682      0              10.738932      115.70272    
     25500   2.9947771      6.1452585      0              10.635231      117.02682    
     26000   3.0996507      6.1320764      0              10.779282      116.74107    
     26500   3.1000951      5.9836054      0              10.631477      115.79977    
     27000   3.116175       6.072389       0              10.744369      116.17033    
     27500   3.0519741      6.1124302      0              10.688156      116.6998     
     28000   3.1169104      6.0850317      0              10.758114      116.8074     
     28500   3.1674966      6.0232202      0              10.772145      116.2334     
     29000   3.1496804      5.9900401      0              10.712254      115.63425    
     29500   3.134657       5.9880505      0              10.68774       115.46336    
     30000   3.0299079      6.15814        0              10.700783      117.57718    
     30500   3.0697851      6.1731222      0              10.775551      117.58253    
     31000   3.161038       5.9289819      0              10.668224      114.79964    
     31500   3.1193523      5.9717919      0              10.648536      115.3088     
     32000   3.0261098      6.1730927      0              10.710041      117.38641    
     32500   3.0583385      6.1270014      0              10.712269      116.86187    
     33000   3.06195        6.0642485      0              10.654931      116.34933    
     33500   3.0890703      6.0557855      0              10.687128      116.03476    
     34000   3.1646061      5.9465545      0              10.691146      115.12308    
     34500   3.1011775      6.168454       0              10.817949      117.41742    
     35000   3.060674       6.1307744      0              10.719544      116.96445    
     35500   3.0546147      6.0476817      0              10.627367      115.92146    
     36000   3.1620021      5.9044714      0              10.645159      114.67584    
     36500   3.1065351      6.0468472      0              10.704375      115.90076    
     37000   3.0256792      6.0913301      0              10.627633      116.62065    
     37500   3.062946       6.0495063      0              10.641682      116.11774    
     38000   3.0443785      6.1757653      0              10.740103      117.50199    
     38500   3.0276562      6.1806654      0              10.719932      117.51981    
     39000   3.0876279      6.0081469      0              10.637327      115.50001    
     39500   3.1294591      6.1046864      0              10.796583      116.79155    
     40000   3.125762       6.0288591      0              10.715213      116.05372    
     40500   3.1175609      5.8971361      0              10.571194      114.59363    
     41000   3.1540047      6.058443       0              10.78714       116.29856    
     41500   3.078378       6.0305421      0              10.645854      115.80958    
     42000   3.0728908      5.9882949      0              10.595381      115.6314     
     42500   3.0746864      6.1647159      0              10.774494      117.00231    
     43000   3.042583       6.0763029      0              10.637949      116.22425    
     43500   3.0445776      6.1607049      0              10.725341      117.21247    
     44000   3.0724856      6.1578706      0              10.764349      117.32638    
     44500   3.0334962      6.0376439      0              10.585666      115.94994    
     45000   3.0995888      6.0152668      0              10.66238       115.82378    
     45500   3.0835689      6.1619218      0              10.785017      117.59567    
     46000   3.1500491      6.049191       0              10.771957      115.96101    
     46500   3.0516971      6.2167986      0              10.792109      118.13482    
     47000   3.0203632      6.0951726      0              10.623505      116.5546     
     47500   3.0637002      6.0575089      0              10.650815      116.11509    
     48000   3.0909958      6.0315875      0              10.665817      116.15937    
     48500   3.077077       6.1248765      0              10.738238      116.80626    
     49000   3.108033       6.0879767      0              10.74775       116.57585    
     49500   3.0304667      6.2511864      0              10.794667      118.39518    
     50000   3.0742065      5.9990041      0              10.608062      115.63847    
Loop time of 7.98182 on 4 procs for 50000 steps with 2048 atoms

Performance: 5412300.904 tau/day, 6264.237 timesteps/s, 12.829 Matom-step/s
99.7% CPU use with 4 MPI tasks x 1 OpenMP threads

MPI task timing breakdown:
Section |  min time  |  avg time  |  max time  |%varavg| %total
---------------------------------------------------------------
Pair    | 2.1576     | 2.1682     | 2.1893     |   0.8 | 27.16
Neigh   | 3.5409     | 3.8142     | 4.0826     |  11.7 | 47.79
Comm    | 1.154      | 1.4135     | 1.6951     |  19.6 | 17.71
Output  | 0.0012386  | 0.001629   | 0.0027757  |   1.6 |  0.02
Modify  | 0.38642    | 0.3907     | 0.39611    |   0.7 |  4.89
Other   |            | 0.1936     |            |       |  2.43

Nlocal:            512 ave         520 max         505 min
Histogram: 1 0 1 0 0 0 1 0 0 1
Nghost:         649.75 ave         659 max         641 min
Histogram: 1 0 0 0 1 1 0 0 0 1
Neighs:        3147.25 ave        3201 max        3071 min
Histogram: 1 0 0 0 0 0 1 1 0 1

Total # of neighbors = 12589
Ave neighs/atom = 6.1469727
Neighbor list builds = 20732
Dangerous builds = 1

unfix 1
dump           1 all atom ${run_steps} 3dWCA_T${final_temperature}_d${density}_N${run_steps}.lammpstrj
dump           1 all atom 100000 3dWCA_T${final_temperature}_d${density}_N${run_steps}.lammpstrj
dump           1 all atom 100000 3dWCA_T0.1_d${density}_N${run_steps}.lammpstrj
dump           1 all atom 100000 3dWCA_T0.1_d1.5_N${run_steps}.lammpstrj
dump           1 all atom 100000 3dWCA_T0.1_d1.5_N100000.lammpstrj
dump           2 all dcd ${thermo_time} 3dWCA_T${final_temperature}_d${density}_N${run_steps}.dcd
dump           2 all dcd 500 3dWCA_T${final_temperature}_d${density}_N${run_steps}.dcd
dump           2 all dcd 500 3dWCA_T0.1_d${density}_N${run_steps}.dcd
dump           2 all dcd 500 3dWCA_T0.1_d1.5_N${run_steps}.dcd
dump           2 all dcd 500 3dWCA_T0.1_d1.5_N100000.dcd
fix 1 all nvt temp ${initial_temperature} ${final_temperature} ${tau}
fix 1 all nvt temp 3 ${final_temperature} ${tau}
fix 1 all nvt temp 3 0.1 ${tau}
fix 1 all nvt temp 3 0.1 1

run ${run_steps}
run 100000
Generated 0 of 0 mixed pair_coeff terms from geometric mixing rule
Per MPI rank memory allocation (min/avg/max) = 3.169 | 3.169 | 3.169 Mbytes
   Step          Temp          E_pair         E_mol          TotEng         Press     
     50000   3.0742065      5.9990041      0              10.608062      115.63847    
     50500   3.0741992      6.2011787      0              10.810226      117.55745    
     51000   3.1183159      5.9027867      0              10.577977      114.84409    
     51500   2.9663973      5.9932718      0              10.440695      115.61975    
     52000   3.0617189      5.9740941      0              10.56443       115.5885     
     52500   2.9926901      5.9107187      0              10.397562      114.74698    
     53000   3.0407973      5.8415369      0              10.400506      113.82844    
     53500   3.0103922      5.843621       0              10.357004      113.68935    
     54000   3.0112002      5.7208478      0              10.235443      112.331      
     54500   2.8982781      5.8629662      0              10.208261      113.87883    
     55000   2.9070782      5.7898789      0              10.148367      113.25401    
     55500   2.9948086      5.6529864      0              10.143006      111.05876    
     56000   2.8575179      5.8368567      0              10.121041      113.17606    
     56500   2.8822966      5.6833278      0              10.004662      111.68308    
     57000   2.8911804      5.6767049      0              10.011358      111.67755    
     57500   2.8319972      5.7056479      0              9.9515695      112.3799     
     58000   2.8364141      5.6475032      0              9.9000469      111.26822    
     58500   2.8149838      5.6436394      0              9.8640533      111.30146    
     59000   2.7742094      5.6056967      0              9.764979       110.72396    
     59500   2.7498838      5.690322       0              9.8131336      111.45345    
     60000   2.7586666      5.5024658      0              9.6384452      109.61803    
     60500   2.782052       5.4645685      0              9.6356089      109.11935    
     61000   2.717206       5.5600014      0              9.6338203      110.19646    
     61500   2.6401335      5.5544978      0              9.5127644      109.67629    
     62000   2.721131       5.4495125      0              9.529216       109.04088    
     62500   2.6919755      5.5100253      0              9.5460169      109.68281    
     63000   2.555359       5.5344191      0              9.3655859      109.4635     
     63500   2.7124298      5.2780132      0              9.3446713      107.14569    
     64000   2.6885019      5.28289        0              9.3136738      106.84795    
     64500   2.6294853      5.2814698      0              9.2237718      106.74521    
     65000   2.5590211      5.3968437      0              9.233501       107.96695    
     65500   2.6052516      5.2199443      0              9.1259135      106.26613    
     66000   2.5633827      5.3250355      0              9.1682321      107.2239     
     66500   2.5516448      5.2527712      0              9.0783696      106.50722    
     67000   2.5527931      5.1772629      0              9.0045828      105.84025    
     67500   2.5864114      5.1122695      0              8.9899923      105.06617    
     68000   2.494133       5.1704653      0              8.909838       105.64644    
     68500   2.5015483      5.1528074      0              8.9032976      105.51088    
     69000   2.4495833      5.1708402      0              8.843421       105.46287    
     69500   2.4706456      5.0817072      0              8.7858661      104.2154     
     70000   2.4975956      5.0077845      0              8.7523486      103.71732    
     70500   2.4489934      5.0013857      0              8.6730821      103.22055    
     71000   2.4210417      5.0081493      0              8.6379385      103.70411    
     71500   2.3792599      5.0218707      0              8.5890179      103.71791    
     72000   2.3633041      4.9915766      0              8.5348018      103.15514    
     72500   2.346321       5.0083638      0              8.5261268      103.33374    
     73000   2.353571       4.9130254      0              8.4416581      102.4734     
     73500   2.3203462      4.9569836      0              8.4358035      103.01032    
     74000   2.281927       4.9357031      0              8.3569223      102.62391    
     74500   2.2448296      4.9766704      0              8.3422707      102.6069     
     75000   2.27707        4.8349192      0              8.2488564      101.41161    
     75500   2.2580423      4.848416       0              8.2338256      101.38511    
     76000   2.2941069      4.7133446      0              8.1528246      99.966657    
     76500   2.2245662      4.7772014      0              8.1124213      100.61162    
     77000   2.2664495      4.7020087      0              8.1000229      99.690555    
     77500   2.2398197      4.6425857      0              8.0006748      99.116096    
     78000   2.1998179      4.6859211      0              7.9840367      99.566279    
     78500   2.1429357      4.7604703      0              7.9733043      100.41535    
     79000   2.1741079      4.547192       0              7.8067615      97.724241    
     79500   2.1610006      4.6367721      0              7.8766903      98.597021    
     80000   2.1423775      4.5306419      0              7.742639       97.726619    
     80500   2.1293658      4.5564506      0              7.7489398      98.087031    
     81000   2.0658858      4.5403087      0              7.6376242      97.524396    
     81500   2.0496213      4.4659692      0              7.5389         96.780334    
     82000   2.0809374      4.5220979      0              7.6419799      97.563061    
     82500   2.0623499      4.3327641      0              7.4247784      95.161551    
     83000   2.0850952      4.4946102      0              7.6207259      97.004641    
     83500   2.0265044      4.3896088      0              7.4278812      95.718766    
     84000   1.9930569      4.5240898      0              7.5122154      97.081529    
     84500   1.9908907      4.375347       0              7.3602249      95.454157    
     85000   1.9836496      4.4465477      0              7.4205692      96.123231    
     85500   1.9580998      4.2895753      0              7.2252908      94.493031    
     86000   2.0843978      4.3441728      0              7.4692429      95.448257    
     86500   1.9775648      4.1675035      0              7.1324023      93.011408    
     87000   1.968127       4.3438312      0              7.2945802      95.29617     
     87500   1.9504524      4.1174837      0              7.0417338      92.561621    
     88000   1.9245805      4.1750343      0              7.0604955      92.889479    
     88500   1.9326176      4.1047493      0              7.0022601      92.461808    
     89000   1.7798502      4.0807703      0              6.749242       91.705608    
     89500   1.8307287      4.1220799      0              6.866832       92.432503    
     90000   1.8064563      4.0827836      0              6.7911449      91.911616    
     90500   1.84965        4.0237825      0              6.7969028      91.122909    
     91000   1.8027891      3.933746       0              6.6366092      90.0574      
     91500   1.8114354      3.9987473      0              6.7145737      90.880916    
     92000   1.7786195      3.9867379      0              6.6533645      90.570894    
     92500   1.7778156      3.9399851      0              6.6054064      90.334518    
     93000   1.7519338      3.9294763      0              6.5560939      90.226066    
     93500   1.7463743      3.9144443      0              6.5327266      89.871734    
     94000   1.7813879      3.9895576      0              6.6603347      90.734517    
     94500   1.6743136      3.9013254      0              6.4115696      89.596819    
     95000   1.6748008      3.8511887      0              6.3621632      88.855993    
     95500   1.707387       3.809171       0              6.3690009      88.285444    
     96000   1.647756       3.7009451      0              6.1713722      86.957541    
     96500   1.6584488      3.8198951      0              6.3063537      88.402856    
     97000   1.6514791      3.6722679      0              6.1482769      86.620541    
     97500   1.6791174      3.7295738      0              6.2470201      87.359677    
     98000   1.6139091      3.6599003      0              6.0795819      86.575002    
     98500   1.5701531      3.7869419      0              6.1410216      87.929839    
     99000   1.5654965      3.6169776      0              5.9640757      85.697352    
     99500   1.6074745      3.6250577      0              6.0350922      85.840142    
    100000   1.5691499      3.6399875      0              5.9925631      86.262885    
    100500   1.53079        3.58928        0              5.8843438      85.524969    
    101000   1.5329491      3.5232694      0              5.8215702      84.569554    
    101500   1.5007006      3.5180704      0              5.7680222      84.27855     
    102000   1.4907499      3.4877813      0              5.7228143      84.229456    
    102500   1.5054265      3.5494417      0              5.8064788      84.775187    
    103000   1.4386382      3.4789022      0              5.6358058      83.888589    
    103500   1.4627763      3.5238585      0              5.7169516      84.369177    
    104000   1.4096786      3.3815754      0              5.4950608      82.560937    
    104500   1.4415076      3.4564278      0              5.6176334      83.725431    
    105000   1.3943419      3.3333021      0              5.4237937      81.838558    
    105500   1.4174813      3.371975       0              5.4971587      82.665468    
    106000   1.3767823      3.2137869      0              5.2779519      80.729017    
    106500   1.3420354      3.2939139      0              5.3059841      81.664157    
    107000   1.3356631      3.284249       0              5.2867654      81.464539    
    107500   1.2960702      3.2483159      0              5.1914719      80.668117    
    108000   1.3545065      3.2318644      0              5.2626321      80.627638    
    108500   1.2376276      3.2182002      0              5.0737352      80.464593    
    109000   1.3182263      3.1752489      0              5.1516228      79.984961    
    109500   1.2753979      3.1268274      0              5.0389902      79.478237    
    110000   1.25253        3.1905122      0              5.0683898      79.864113    
    110500   1.2434428      3.0562161      0              4.9204696      78.092638    
    111000   1.2474846      3.1087813      0              4.9790946      79.061771    
    111500   1.1790601      3.0147689      0              4.7824955      77.960097    
    112000   1.23055        3.0117026      0              4.8566263      77.830505    
    112500   1.1628362      3.0044766      0              4.7478792      77.366268    
    113000   1.2038129      2.9835344      0              4.7883721      77.41353     
    113500   1.1722275      2.9244602      0              4.6819429      76.86144     
    114000   1.1659217      3.0215468      0              4.7695754      77.662653    
    114500   1.1381661      2.8696511      0              4.5760665      75.824661    
    115000   1.1536465      2.8934325      0              4.6230572      76.117734    
    115500   1.1007503      2.8567945      0              4.5071138      75.682014    
    116000   1.1025956      2.8506587      0              4.5037446      75.687779    
    116500   1.0851011      2.786573       0              4.4134299      74.717412    
    117000   1.1152573      2.8144566      0              4.4865257      74.867227    
    117500   1.0311842      2.7566537      0              4.3026748      74.158564    
    118000   1.0484089      2.7880507      0              4.3598962      74.493728    
    118500   1.0144864      2.6957121      0              4.2166986      73.392352    
    119000   1.0137084      2.7044652      0              4.2242854      73.572796    
    119500   0.99296843     2.6549464      0              4.1436718      72.880738    
    120000   0.97677747     2.6663559      0              4.1308067      72.963129    
    120500   0.95643748     2.6139036      0              4.0478593      72.347853    
    121000   0.97408928     2.5595964      0              4.0200169      71.445639    
    121500   0.94045415     2.5680789      0              3.9780713      71.669902    
    122000   0.95605804     2.5385726      0              3.9719594      71.250455    
    122500   0.8861743      2.5106086      0              3.839221       70.821271    
    123000   0.88044261     2.5428538      0              3.8628729      71.267071    
    123500   0.86374978     2.4641384      0              3.7591305      70.198657    
    124000   0.86177112     2.455641       0              3.7476665      70.131602    
    124500   0.84405314     2.4344084      0              3.6998699      69.783548    
    125000   0.81093094     2.36953        0              3.5853324      68.86837     
    125500   0.81747421     2.3975217      0              3.6231343      69.346662    
    126000   0.78684291     2.3339142      0              3.5136023      68.358547    
    126500   0.80828384     2.3426967      0              3.5545305      68.568087    
    127000   0.75430308     2.2987887      0              3.4296908      67.97403     
    127500   0.7689161      2.2538675      0              3.4066785      67.313332    
    128000   0.74939641     2.2233189      0              3.3468647      66.855977    
    128500   0.71882141     2.1672078      0              3.2449134      66.131773    
    129000   0.71804276     2.1655694      0              3.2421076      66.058486    
    129500   0.6813644      2.1381965      0              3.1597441      65.636576    
    130000   0.68826074     2.1395106      0              3.1713976      65.570443    
    130500   0.65861338     2.0743589      0              3.0617965      64.70434     
    131000   0.65181634     2.0759524      0              3.0531995      64.738826    
    131500   0.62939788     2.0422306      0              2.9858665      64.220127    
    132000   0.62977209     2.053532       0              2.9977288      64.38699     
    132500   0.59776448     2.0071401      0              2.903349       63.765562    
    133000   0.59798607     2.0020959      0              2.898637       63.591319    
    133500   0.57388113     1.9427119      0              2.8031132      62.89575     
    134000   0.56990579     1.897874       0              2.7523153      62.369645    
    134500   0.5548417      1.8779322      0              2.7097884      61.995925    
    135000   0.53172295     1.8800248      0              2.6772198      61.944433    
    135500   0.52356324     1.8463211      0              2.6312825      61.438955    
    136000   0.50598314     1.7960851      0              2.5546892      60.778849    
    136500   0.49390102     1.7951816      0              2.5356714      60.85302     
    137000   0.48061652     1.775075       0              2.4956478      60.525121    
    137500   0.45711367     1.7585546      0              2.4438903      60.279926    
    138000   0.4474968      1.7124214      0              2.3833388      59.725062    
    138500   0.42502357     1.7146885      0              2.3519125      59.760723    
    139000   0.42206783     1.6790001      0              2.3117927      59.1391      
    139500   0.39939407     1.659303       0              2.2581015      58.869686    
    140000   0.39267229     1.624121       0              2.2128418      58.404359    
    140500   0.37935762     1.5960599      0              2.1648185      58.021655    
    141000   0.37066423     1.5605647      0              2.1162896      57.577539    
    141500   0.35740622     1.53067        0              2.0665175      57.195484    
    142000   0.3403579      1.5096923      0              2.0199799      56.960487    
    142500   0.31925164     1.4966851      0              1.9753287      56.74841     
    143000   0.30439531     1.4700854      0              1.9264554      56.387104    
    143500   0.28830819     1.4452855      0              1.8775367      55.992575    
    144000   0.27511393     1.4184002      0              1.8308696      55.708955    
    144500   0.26546338     1.3859431      0              1.7839437      55.258092    
    145000   0.24826104     1.3630164      0              1.7352261      55.027552    
    145500   0.22969503     1.345746       0              1.6901203      54.769268    
    146000   0.22013823     1.3095817      0              1.6396278      54.319399    
    146500   0.20206358     1.291078       0              1.5940254      54.097287    
    147000   0.18989856     1.2613403      0              1.546049       53.763283    
    147500   0.17419198     1.2382797      0              1.4994401      53.493931    
    148000   0.16198642     1.2090858      0              1.4519468      53.188674    
    148500   0.14489215     1.187036       0              1.4042682      52.933371    
    149000   0.13138179     1.1617358      0              1.3587123      52.678726    
    149500   0.1197579      1.1315298      0              1.3110789      52.369848    
    150000   0.10490855     1.107906       0              1.265192       52.148746    
Loop time of 11.1673 on 4 procs for 100000 steps with 2048 atoms

Performance: 7736898.954 tau/day, 8954.744 timesteps/s, 18.339 Matom-step/s
99.5% CPU use with 4 MPI tasks x 1 OpenMP threads

MPI task timing breakdown:
Section |  min time  |  avg time  |  max time  |%varavg| %total
---------------------------------------------------------------
Pair    | 3.9807     | 3.9919     | 4.0101     |   0.6 | 35.75
Neigh   | 3.622      | 3.898      | 4.1665     |  11.5 | 34.91
Comm    | 1.8406     | 2.0975     | 2.3704     |  15.6 | 18.78
Output  | 0.098169   | 0.098539   | 0.099638   |   0.2 |  0.88
Modify  | 0.76056    | 0.76436    | 0.76829    |   0.3 |  6.84
Other   |            | 0.317      |            |       |  2.84

Nlocal:            512 ave         522 max         505 min
Histogram: 2 0 0 0 0 0 1 0 0 1
Nghost:            637 ave         644 max         627 min
Histogram: 1 0 0 1 0 0 0 0 0 2
Neighs:           3072 ave        3163 max        2997 min
Histogram: 1 0 0 1 1 0 0 0 0 1

Total # of neighbors = 12288
Ave neighs/atom = 6
Neighbor list builds = 22265
Dangerous builds = 0
Total wall time: 0:00:19
